 Entering Gaussian System, Link 0=/fslapps/gaussian09/B.01/EM64T/g09/g09
 Initial command:
 /apps/gaussian09/B.01/EM64T/g09/l1.exe /tmp/33149045/temporary_files/Gau-110044.inp -scrdir=/tmp/33149045/temporary_files/
 Entering Link 1 = /apps/gaussian09/B.01/EM64T/g09/l1.exe PID=    110045.
  
 Copyright (c) 1988,1990,1992,1993,1995,1998,2003,2009,2010,
            Gaussian, Inc.  All Rights Reserved.
  
 This is part of the Gaussian(R) 09 program.  It is based on
 the Gaussian(R) 03 system (copyright 2003, Gaussian, Inc.),
 the Gaussian(R) 98 system (copyright 1998, Gaussian, Inc.),
 the Gaussian(R) 94 system (copyright 1995, Gaussian, Inc.),
 the Gaussian 92(TM) system (copyright 1992, Gaussian, Inc.),
 the Gaussian 90(TM) system (copyright 1990, Gaussian, Inc.),
 the Gaussian 88(TM) system (copyright 1988, Gaussian, Inc.),
 the Gaussian 86(TM) system (copyright 1986, Carnegie Mellon
 University), and the Gaussian 82(TM) system (copyright 1983,
 Carnegie Mellon University). Gaussian is a federally registered
 trademark of Gaussian, Inc.
  
 This software contains proprietary and confidential information,
 including trade secrets, belonging to Gaussian, Inc.
  
 This software is provided under written license and may be
 used, copied, transmitted, or stored only in accord with that
 written license.
  
 The following legend is applicable only to US Government
 contracts under FAR:
  
                    RESTRICTED RIGHTS LEGEND
  
 Use, reproduction and disclosure by the US Government is
 subject to restrictions as set forth in subparagraphs (a)
 and (c) of the Commercial Computer Software - Restricted
 Rights clause in FAR 52.227-19.
  
 Gaussian, Inc.
 340 Quinnipiac St., Bldg. 40, Wallingford CT 06492
  
  
 ---------------------------------------------------------------
 Warning -- This program may not be used in any manner that
 competes with the business of Gaussian, Inc. or will provide
 assistance to any competitor of Gaussian, Inc.  The licensee
 of this program is prohibited from giving any competitor of
 Gaussian, Inc. access to this program.  By using this program,
 the user acknowledges that Gaussian, Inc. is engaged in the
 business of creating and licensing software in the field of
 computational chemistry and represents and warrants to the
 licensee that it is not a competitor of Gaussian, Inc. and that
 it will not use this program in any manner prohibited above.
 ---------------------------------------------------------------
  

 Cite this work as:
 Gaussian 09, Revision B.01,
 M. J. Frisch, G. W. Trucks, H. B. Schlegel, G. E. Scuseria, 
 M. A. Robb, J. R. Cheeseman, G. Scalmani, V. Barone, B. Mennucci, 
 G. A. Petersson, H. Nakatsuji, M. Caricato, X. Li, H. P. Hratchian, 
 A. F. Izmaylov, J. Bloino, G. Zheng, J. L. Sonnenberg, M. Hada, 
 M. Ehara, K. Toyota, R. Fukuda, J. Hasegawa, M. Ishida, T. Nakajima, 
 Y. Honda, O. Kitao, H. Nakai, T. Vreven, J. A. Montgomery, Jr., 
 J. E. Peralta, F. Ogliaro, M. Bearpark, J. J. Heyd, E. Brothers, 
 K. N. Kudin, V. N. Staroverov, T. Keith, R. Kobayashi, J. Normand, 
 K. Raghavachari, A. Rendell, J. C. Burant, S. S. Iyengar, J. Tomasi, 
 M. Cossi, N. Rega, J. M. Millam, M. Klene, J. E. Knox, J. B. Cross, 
 V. Bakken, C. Adamo, J. Jaramillo, R. Gomperts, R. E. Stratmann, 
 O. Yazyev, A. J. Austin, R. Cammi, C. Pomelli, J. W. Ochterski, 
 R. L. Martin, K. Morokuma, V. G. Zakrzewski, G. A. Voth, 
 P. Salvador, J. J. Dannenberg, S. Dapprich, A. D. Daniels, 
 O. Farkas, J. B. Foresman, J. V. Ortiz, J. Cioslowski, 
 and D. J. Fox, Gaussian, Inc., Wallingford CT, 2010.
 
 ******************************************
 Gaussian 09:  EM64L-G09RevB.01 12-Aug-2010
                 8-Nov-2019 
 ******************************************
 %nprocshared=16
 Will use up to   16 processors via shared memory.
 %mem=32gb
 %chk=diazene_2_sym_tsfr
 ----------------------------------------------------------------------
 #opt=(ts,calcfc,noeigen) freq=(noraman,hpmodes) guess=(mix,always) scf
 =(xqc,maxcycle=1000) um062x/6-31g(d,p) IOp(2/15=4,2/16=3)
 ----------------------------------------------------------------------
 1/5=1,10=4,11=1,14=-1,18=20,26=3,38=1/1,3;
 2/9=110,12=2,15=4,16=3,17=6,18=5,40=1/2;
 3/5=1,6=6,7=101,11=2,16=1,25=1,30=1,71=2,74=-55,116=2/1,2,3;
 4/13=-1/1;
 5/5=2,7=1000,8=3,13=1,38=5/2,8;
 8/6=4,10=90,11=11/1;
 11/6=1,8=1,9=11,15=111,16=1/1,2,10;
 10/6=1,7=6,13=1/2;
 6/7=2,8=2,9=2,10=2,28=1/1;
 7/10=1,18=20,25=1/1,2,3,16;
 1/5=1,10=4,11=1,14=-1,18=20/3(2);
 2/9=110,15=4,16=3/2;
 99//99;
 2/9=110,15=4,16=3/2;
 3/5=1,6=6,7=101,11=2,16=1,25=1,30=1,71=1,74=-55,116=2/1,2,3;
 4/13=-1/1;
 5/5=2,7=1000,8=3,13=1,38=5/2,8;
 7//1,2,3,16;
 1/5=1,11=1,14=-1,18=20/3(-5);
 2/9=110,15=4,16=3/2;
 6/7=2,8=2,9=2,10=2,19=2,28=1/1;
 99/9=1/99;
 ------------------
 diazene_2_sym_tsfr
 ------------------
 Symbolic Z-matrix:
 Charge =  0 Multiplicity = 1
 C                     0.36066  -1.25352   0.7816 
 H(Iso=2)             -0.06727  -2.18671   1.17084 
 H                     1.36888  -1.17517   1.20249 
 C                     0.36066  -1.25352  -0.7816 
 H(Iso=2)             -0.06727  -2.18671  -1.17084 
 H                     1.36888  -1.17517  -1.20249 
 C                    -0.48951  -0.06246   1.16257 
 H                    -0.7669    0.14064   2.19031 
 C                    -0.48951  -0.06246  -1.16257 
 H                    -0.7669    0.14064  -2.19031 
 N                     0.95238   1.39757   0.56714 
 N                     0.95238   1.39757  -0.56714 
 C                    -1.36257   0.26806   0. 
 H                    -2.21055  -0.4426    0. 
 H                    -1.77662   1.27964   0. 
 

 GradGradGradGradGradGradGradGradGradGradGradGradGradGradGradGradGradGrad
 Berny optimization.
 Initialization pass.
                           ----------------------------
                           !    Initial Parameters    !
                           ! (Angstroms and Degrees)  !
 --------------------------                            --------------------------
 ! Name  Definition              Value          Derivative Info.                !
 --------------------------------------------------------------------------------
 ! R1    R(1,2)                  1.0979         calculate D2E/DX2 analytically  !
 ! R2    R(1,3)                  1.0954         calculate D2E/DX2 analytically  !
 ! R3    R(1,4)                  1.5632         calculate D2E/DX2 analytically  !
 ! R4    R(1,7)                  1.5121         calculate D2E/DX2 analytically  !
 ! R5    R(1,11)                 2.7248         calculate D2E/DX2 analytically  !
 ! R6    R(3,11)                 2.6826         calculate D2E/DX2 analytically  !
 ! R7    R(4,5)                  1.0979         calculate D2E/DX2 analytically  !
 ! R8    R(4,6)                  1.0954         calculate D2E/DX2 analytically  !
 ! R9    R(4,9)                  1.5121         calculate D2E/DX2 analytically  !
 ! R10   R(4,12)                 2.7248         calculate D2E/DX2 analytically  !
 ! R11   R(6,12)                 2.6826         calculate D2E/DX2 analytically  !
 ! R12   R(7,8)                  1.0837         calculate D2E/DX2 analytically  !
 ! R13   R(7,11)                 2.1366         calculate D2E/DX2 analytically  !
 ! R14   R(7,12)                 2.6838         calculate D2E/DX2 analytically  !
 ! R15   R(7,13)                 1.491          calculate D2E/DX2 analytically  !
 ! R16   R(8,11)                 2.6778         calculate D2E/DX2 analytically  !
 ! R17   R(9,10)                 1.0837         calculate D2E/DX2 analytically  !
 ! R18   R(9,11)                 2.6838         calculate D2E/DX2 analytically  !
 ! R19   R(9,12)                 2.1366         calculate D2E/DX2 analytically  !
 ! R20   R(9,13)                 1.491          calculate D2E/DX2 analytically  !
 ! R21   R(10,12)                2.6778         calculate D2E/DX2 analytically  !
 ! R22   R(11,12)                1.1343         calculate D2E/DX2 analytically  !
 ! R23   R(11,13)                2.6375         calculate D2E/DX2 analytically  !
 ! R24   R(12,13)                2.6375         calculate D2E/DX2 analytically  !
 ! R25   R(13,14)                1.1064         calculate D2E/DX2 analytically  !
 ! R26   R(13,15)                1.093          calculate D2E/DX2 analytically  !
 ! A1    A(2,1,3)              106.4592         calculate D2E/DX2 analytically  !
 ! A2    A(2,1,4)              110.7639         calculate D2E/DX2 analytically  !
 ! A3    A(2,1,7)              111.1629         calculate D2E/DX2 analytically  !
 ! A4    A(2,1,11)             159.9683         calculate D2E/DX2 analytically  !
 ! A5    A(3,1,4)              112.5972         calculate D2E/DX2 analytically  !
 ! A6    A(3,1,7)              111.3679         calculate D2E/DX2 analytically  !
 ! A7    A(4,1,7)              104.5924         calculate D2E/DX2 analytically  !
 ! A8    A(4,1,11)              85.4858         calculate D2E/DX2 analytically  !
 ! A9    A(1,4,5)              110.7639         calculate D2E/DX2 analytically  !
 ! A10   A(1,4,6)              112.5972         calculate D2E/DX2 analytically  !
 ! A11   A(1,4,9)              104.5924         calculate D2E/DX2 analytically  !
 ! A12   A(1,4,12)              85.4858         calculate D2E/DX2 analytically  !
 ! A13   A(5,4,6)              106.4592         calculate D2E/DX2 analytically  !
 ! A14   A(5,4,9)              111.1629         calculate D2E/DX2 analytically  !
 ! A15   A(5,4,12)             159.9683         calculate D2E/DX2 analytically  !
 ! A16   A(6,4,9)              111.3679         calculate D2E/DX2 analytically  !
 ! A17   A(1,7,8)              122.0362         calculate D2E/DX2 analytically  !
 ! A18   A(1,7,12)              87.9406         calculate D2E/DX2 analytically  !
 ! A19   A(1,7,13)             107.9015         calculate D2E/DX2 analytically  !
 ! A20   A(8,7,12)             130.299          calculate D2E/DX2 analytically  !
 ! A21   A(8,7,13)             123.232          calculate D2E/DX2 analytically  !
 ! A22   A(4,9,10)             122.0362         calculate D2E/DX2 analytically  !
 ! A23   A(4,9,11)              87.9406         calculate D2E/DX2 analytically  !
 ! A24   A(4,9,13)             107.9015         calculate D2E/DX2 analytically  !
 ! A25   A(10,9,11)            130.299          calculate D2E/DX2 analytically  !
 ! A26   A(10,9,13)            123.232          calculate D2E/DX2 analytically  !
 ! A27   A(1,11,8)              49.9215         calculate D2E/DX2 analytically  !
 ! A28   A(1,11,9)              53.4692         calculate D2E/DX2 analytically  !
 ! A29   A(1,11,12)             94.5142         calculate D2E/DX2 analytically  !
 ! A30   A(1,11,13)             53.8183         calculate D2E/DX2 analytically  !
 ! A31   A(3,11,7)              51.9335         calculate D2E/DX2 analytically  !
 ! A32   A(3,11,8)              60.3927         calculate D2E/DX2 analytically  !
 ! A33   A(3,11,9)              73.4003         calculate D2E/DX2 analytically  !
 ! A34   A(3,11,12)            103.7003         calculate D2E/DX2 analytically  !
 ! A35   A(3,11,13)             77.0845         calculate D2E/DX2 analytically  !
 ! A36   A(7,11,9)              56.3098         calculate D2E/DX2 analytically  !
 ! A37   A(8,11,9)              77.8991         calculate D2E/DX2 analytically  !
 ! A38   A(8,11,12)            127.3127         calculate D2E/DX2 analytically  !
 ! A39   A(8,11,13)             50.6387         calculate D2E/DX2 analytically  !
 ! A40   A(4,12,7)              53.4692         calculate D2E/DX2 analytically  !
 ! A41   A(4,12,10)             49.9215         calculate D2E/DX2 analytically  !
 ! A42   A(4,12,11)             94.5142         calculate D2E/DX2 analytically  !
 ! A43   A(4,12,13)             53.8183         calculate D2E/DX2 analytically  !
 ! A44   A(6,12,7)              73.4003         calculate D2E/DX2 analytically  !
 ! A45   A(6,12,9)              51.9335         calculate D2E/DX2 analytically  !
 ! A46   A(6,12,10)             60.3927         calculate D2E/DX2 analytically  !
 ! A47   A(6,12,11)            103.7003         calculate D2E/DX2 analytically  !
 ! A48   A(6,12,13)             77.0845         calculate D2E/DX2 analytically  !
 ! A49   A(7,12,9)              56.3098         calculate D2E/DX2 analytically  !
 ! A50   A(7,12,10)             77.8991         calculate D2E/DX2 analytically  !
 ! A51   A(10,12,11)           127.3127         calculate D2E/DX2 analytically  !
 ! A52   A(10,12,13)            50.6387         calculate D2E/DX2 analytically  !
 ! A53   A(7,13,9)             102.4721         calculate D2E/DX2 analytically  !
 ! A54   A(7,13,14)            107.8427         calculate D2E/DX2 analytically  !
 ! A55   A(7,13,15)            115.2754         calculate D2E/DX2 analytically  !
 ! A56   A(9,13,14)            107.8427         calculate D2E/DX2 analytically  !
 ! A57   A(9,13,15)            115.2754         calculate D2E/DX2 analytically  !
 ! A58   A(11,13,14)           161.4017         calculate D2E/DX2 analytically  !
 ! A59   A(11,13,15)            86.3388         calculate D2E/DX2 analytically  !
 ! A60   A(12,13,14)           161.4017         calculate D2E/DX2 analytically  !
 ! A61   A(12,13,15)            86.3388         calculate D2E/DX2 analytically  !
 ! A62   A(14,13,15)           107.7053         calculate D2E/DX2 analytically  !
 ! D1    D(2,1,4,5)              0.0            calculate D2E/DX2 analytically  !
 ! D2    D(2,1,4,6)           -119.0787         calculate D2E/DX2 analytically  !
 ! D3    D(2,1,4,9)            119.8462         calculate D2E/DX2 analytically  !
 ! D4    D(2,1,4,12)           167.9472         calculate D2E/DX2 analytically  !
 ! D5    D(3,1,4,5)            119.0787         calculate D2E/DX2 analytically  !
 ! D6    D(3,1,4,6)              0.0            calculate D2E/DX2 analytically  !
 ! D7    D(3,1,4,9)           -121.0751         calculate D2E/DX2 analytically  !
 ! D8    D(3,1,4,12)           -72.974          calculate D2E/DX2 analytically  !
 ! D9    D(7,1,4,5)           -119.8462         calculate D2E/DX2 analytically  !
 ! D10   D(7,1,4,6)            121.0751         calculate D2E/DX2 analytically  !
 ! D11   D(7,1,4,9)              0.0            calculate D2E/DX2 analytically  !
 ! D12   D(7,1,4,12)            48.1011         calculate D2E/DX2 analytically  !
 ! D13   D(11,1,4,5)          -167.9472         calculate D2E/DX2 analytically  !
 ! D14   D(11,1,4,6)            72.974          calculate D2E/DX2 analytically  !
 ! D15   D(11,1,4,9)           -48.1011         calculate D2E/DX2 analytically  !
 ! D16   D(11,1,4,12)            0.0            calculate D2E/DX2 analytically  !
 ! D17   D(2,1,7,8)             53.6846         calculate D2E/DX2 analytically  !
 ! D18   D(2,1,7,12)          -168.5023         calculate D2E/DX2 analytically  !
 ! D19   D(2,1,7,13)           -98.1395         calculate D2E/DX2 analytically  !
 ! D20   D(3,1,7,8)            -64.8517         calculate D2E/DX2 analytically  !
 ! D21   D(3,1,7,12)            72.9614         calculate D2E/DX2 analytically  !
 ! D22   D(3,1,7,13)           143.3242         calculate D2E/DX2 analytically  !
 ! D23   D(4,1,7,8)            173.2628         calculate D2E/DX2 analytically  !
 ! D24   D(4,1,7,12)           -48.9241         calculate D2E/DX2 analytically  !
 ! D25   D(4,1,7,13)            21.4387         calculate D2E/DX2 analytically  !
 ! D26   D(2,1,11,8)            -8.5106         calculate D2E/DX2 analytically  !
 ! D27   D(2,1,11,9)          -114.9125         calculate D2E/DX2 analytically  !
 ! D28   D(2,1,11,12)         -145.2494         calculate D2E/DX2 analytically  !
 ! D29   D(2,1,11,13)          -74.2137         calculate D2E/DX2 analytically  !
 ! D30   D(4,1,11,8)           136.7387         calculate D2E/DX2 analytically  !
 ! D31   D(4,1,11,9)            30.3369         calculate D2E/DX2 analytically  !
 ! D32   D(4,1,11,12)            0.0            calculate D2E/DX2 analytically  !
 ! D33   D(4,1,11,13)           71.0356         calculate D2E/DX2 analytically  !
 ! D34   D(1,4,9,10)          -173.2628         calculate D2E/DX2 analytically  !
 ! D35   D(1,4,9,11)            48.9241         calculate D2E/DX2 analytically  !
 ! D36   D(1,4,9,13)           -21.4387         calculate D2E/DX2 analytically  !
 ! D37   D(5,4,9,10)           -53.6846         calculate D2E/DX2 analytically  !
 ! D38   D(5,4,9,11)           168.5023         calculate D2E/DX2 analytically  !
 ! D39   D(5,4,9,13)            98.1395         calculate D2E/DX2 analytically  !
 ! D40   D(6,4,9,10)            64.8517         calculate D2E/DX2 analytically  !
 ! D41   D(6,4,9,11)           -72.9614         calculate D2E/DX2 analytically  !
 ! D42   D(6,4,9,13)          -143.3242         calculate D2E/DX2 analytically  !
 ! D43   D(1,4,12,7)           -30.3369         calculate D2E/DX2 analytically  !
 ! D44   D(1,4,12,10)         -136.7387         calculate D2E/DX2 analytically  !
 ! D45   D(1,4,12,11)            0.0            calculate D2E/DX2 analytically  !
 ! D46   D(1,4,12,13)          -71.0356         calculate D2E/DX2 analytically  !
 ! D47   D(5,4,12,7)           114.9125         calculate D2E/DX2 analytically  !
 ! D48   D(5,4,12,10)            8.5106         calculate D2E/DX2 analytically  !
 ! D49   D(5,4,12,11)          145.2494         calculate D2E/DX2 analytically  !
 ! D50   D(5,4,12,13)           74.2137         calculate D2E/DX2 analytically  !
 ! D51   D(1,7,12,4)            31.3895         calculate D2E/DX2 analytically  !
 ! D52   D(1,7,12,6)            17.6439         calculate D2E/DX2 analytically  !
 ! D53   D(1,7,12,9)            72.5779         calculate D2E/DX2 analytically  !
 ! D54   D(1,7,12,10)           80.0411         calculate D2E/DX2 analytically  !
 ! D55   D(8,7,12,4)           163.108          calculate D2E/DX2 analytically  !
 ! D56   D(8,7,12,6)           149.3624         calculate D2E/DX2 analytically  !
 ! D57   D(8,7,12,9)          -155.7036         calculate D2E/DX2 analytically  !
 ! D58   D(8,7,12,10)         -148.2405         calculate D2E/DX2 analytically  !
 ! D59   D(1,7,13,9)           -34.398          calculate D2E/DX2 analytically  !
 ! D60   D(1,7,13,14)           79.2342         calculate D2E/DX2 analytically  !
 ! D61   D(1,7,13,15)         -160.4146         calculate D2E/DX2 analytically  !
 ! D62   D(8,7,13,9)           174.1916         calculate D2E/DX2 analytically  !
 ! D63   D(8,7,13,14)          -72.1762         calculate D2E/DX2 analytically  !
 ! D64   D(8,7,13,15)           48.175          calculate D2E/DX2 analytically  !
 ! D65   D(4,9,11,1)           -31.3895         calculate D2E/DX2 analytically  !
 ! D66   D(4,9,11,3)           -17.6439         calculate D2E/DX2 analytically  !
 ! D67   D(4,9,11,7)           -72.5779         calculate D2E/DX2 analytically  !
 ! D68   D(4,9,11,8)           -80.0411         calculate D2E/DX2 analytically  !
 ! D69   D(10,9,11,1)         -163.108          calculate D2E/DX2 analytically  !
 ! D70   D(10,9,11,3)         -149.3624         calculate D2E/DX2 analytically  !
 ! D71   D(10,9,11,7)          155.7036         calculate D2E/DX2 analytically  !
 ! D72   D(10,9,11,8)          148.2405         calculate D2E/DX2 analytically  !
 ! D73   D(4,9,13,7)            34.398          calculate D2E/DX2 analytically  !
 ! D74   D(4,9,13,14)          -79.2342         calculate D2E/DX2 analytically  !
 ! D75   D(4,9,13,15)          160.4146         calculate D2E/DX2 analytically  !
 ! D76   D(10,9,13,7)         -174.1916         calculate D2E/DX2 analytically  !
 ! D77   D(10,9,13,14)          72.1762         calculate D2E/DX2 analytically  !
 ! D78   D(10,9,13,15)         -48.175          calculate D2E/DX2 analytically  !
 ! D79   D(1,11,12,4)            0.0            calculate D2E/DX2 analytically  !
 ! D80   D(1,11,12,6)          -21.778          calculate D2E/DX2 analytically  !
 ! D81   D(1,11,12,10)          41.2484         calculate D2E/DX2 analytically  !
 ! D82   D(3,11,12,4)           21.778          calculate D2E/DX2 analytically  !
 ! D83   D(3,11,12,6)            0.0            calculate D2E/DX2 analytically  !
 ! D84   D(3,11,12,10)          63.0263         calculate D2E/DX2 analytically  !
 ! D85   D(8,11,12,4)          -41.2484         calculate D2E/DX2 analytically  !
 ! D86   D(8,11,12,6)          -63.0263         calculate D2E/DX2 analytically  !
 ! D87   D(8,11,12,10)           0.0            calculate D2E/DX2 analytically  !
 ! D88   D(1,11,13,14)          25.7451         calculate D2E/DX2 analytically  !
 ! D89   D(1,11,13,15)         165.6845         calculate D2E/DX2 analytically  !
 ! D90   D(3,11,13,14)          23.4521         calculate D2E/DX2 analytically  !
 ! D91   D(3,11,13,15)         163.3915         calculate D2E/DX2 analytically  !
 ! D92   D(8,11,13,14)         -38.6766         calculate D2E/DX2 analytically  !
 ! D93   D(8,11,13,15)         101.2628         calculate D2E/DX2 analytically  !
 ! D94   D(4,12,13,14)         -25.7451         calculate D2E/DX2 analytically  !
 ! D95   D(4,12,13,15)        -165.6845         calculate D2E/DX2 analytically  !
 ! D96   D(6,12,13,14)         -23.4521         calculate D2E/DX2 analytically  !
 ! D97   D(6,12,13,15)        -163.3915         calculate D2E/DX2 analytically  !
 ! D98   D(10,12,13,14)         38.6766         calculate D2E/DX2 analytically  !
 ! D99   D(10,12,13,15)       -101.2628         calculate D2E/DX2 analytically  !
 --------------------------------------------------------------------------------
 Trust Radius=3.00D-01 FncErr=1.00D-07 GrdErr=1.00D-06
 Number of steps in this run=    100 maximum allowed number of steps=    100.
 Search for a saddle point of order  1.
 GradGradGradGradGradGradGradGradGradGradGradGradGradGradGradGradGradGrad

                          Input orientation:                          
 ---------------------------------------------------------------------
 Center     Atomic      Atomic             Coordinates (Angstroms)
 Number     Number       Type             X           Y           Z
 ---------------------------------------------------------------------
      1          6           0        0.360663   -1.253522    0.781598
      2          1           0       -0.067270   -2.186713    1.170838
      3          1           0        1.368884   -1.175165    1.202487
      4          6           0        0.360663   -1.253522   -0.781598
      5          1           0       -0.067270   -2.186713   -1.170838
      6          1           0        1.368884   -1.175165   -1.202487
      7          6           0       -0.489512   -0.062460    1.162567
      8          1           0       -0.766902    0.140644    2.190311
      9          6           0       -0.489512   -0.062460   -1.162567
     10          1           0       -0.766902    0.140644   -2.190311
     11          7           0        0.952376    1.397568    0.567140
     12          7           0        0.952376    1.397568   -0.567140
     13          6           0       -1.362569    0.268055    0.000000
     14          1           0       -2.210548   -0.442604    0.000000
     15          1           0       -1.776619    1.279635    0.000000
 ---------------------------------------------------------------------
                    Distance matrix (angstroms):
                    1          2          3          4          5
     1  C    0.000000
     2  H    1.097943   0.000000
     3  H    1.095352   1.756920   0.000000
     4  C    1.563196   2.205896   2.226936   0.000000
     5  H    2.205896   2.341676   2.952700   1.097943   0.000000
     6  H    2.226936   2.952700   2.404974   1.095352   1.756920
     7  C    1.512139   2.165827   2.166412   2.433352   3.183633
     8  H    2.280257   2.635413   2.696058   3.470929   4.147698
     9  C    2.433352   3.183633   3.207059   1.512139   2.165827
    10  H    3.470929   4.147698   4.219480   2.280257   2.635413
    11  N    2.724774   3.775076   2.682555   3.032737   4.111851
    12  N    3.032737   4.111851   3.150240   2.724774   3.775076
    13  C    2.428090   3.012399   3.315071   2.428090   3.012399
    14  H    2.807064   3.001070   3.846421   2.807064   3.001070
    15  H    3.405254   4.038354   4.167278   3.405254   4.038354
                    6          7          8          9         10
     6  H    0.000000
     7  C    3.207059   0.000000
     8  H    4.219480   1.083722   0.000000
     9  C    2.166412   2.325134   3.370458   0.000000
    10  H    2.696058   3.370458   4.380622   1.083722   0.000000
    11  N    3.150240   2.136646   2.677771   2.683768   3.484151
    12  N    2.682555   2.683768   3.484151   2.136646   2.677771
    13  C    3.315071   1.490983   2.273437   1.490983   2.273437
    14  H    3.846421   2.111406   2.687332   2.111406   2.687332
    15  H    4.167278   2.193040   2.667263   2.193040   2.667263
                   11         12         13         14         15
    11  N    0.000000
    12  N    1.134280   0.000000
    13  C    2.637502   2.637502   0.000000
    14  H    3.702968   3.702968   1.106393   0.000000
    15  H    2.789797   2.789797   1.093038   1.776063   0.000000
 Stoichiometry    C5H8N2
 Framework group  CS[SG(CH2),X(C4H6N2)]
 Deg. of freedom    21
 Full point group                 CS      NOp   2
 Largest Abelian subgroup         CS      NOp   2
 Largest concise Abelian subgroup CS      NOp   2
                         Standard orientation:                         
 ---------------------------------------------------------------------
 Center     Atomic      Atomic             Coordinates (Angstroms)
 Number     Number       Type             X           Y           Z
 ---------------------------------------------------------------------
      1          6           0       -0.443083   -1.218563    0.781598
      2          1           0       -1.333547   -1.729489    1.170838
      3          1           0        0.423054   -1.740536    1.202487
      4          6           0       -0.443083   -1.218563   -0.781598
      5          1           0       -1.333547   -1.729489   -1.170838
      6          1           0        0.423054   -1.740536   -1.202487
      7          6           0       -0.443083    0.244799    1.162567
      8          1           0       -0.550859    0.571266    2.190311
      9          6           0       -0.443083    0.244799   -1.162567
     10          1           0       -0.550859    0.571266   -2.190311
     11          7           0        1.578740    0.595448    0.567140
     12          7           0        1.578740    0.595448   -0.567140
     13          6           0       -0.961663    1.021036    0.000000
     14          1           0       -2.064726    0.935268    0.000000
     15          1           0       -0.710965    2.084935    0.000000
 ---------------------------------------------------------------------
 Rotational constants (GHZ):      3.6804851      2.7060150      2.5540216
 Standard basis: 6-31G(d,p) (6D, 7F)
 There are    79 symmetry adapted basis functions of A'  symmetry.
 There are    66 symmetry adapted basis functions of A"  symmetry.
 Integral buffers will be    131072 words long.
 Raffenetti 2 integral format.
 Two-electron integral symmetry is turned on.
   145 basis functions,   252 primitive gaussians,   145 cartesian basis functions
    26 alpha electrons       26 beta electrons
       nuclear repulsion energy       296.1465797823 Hartrees.
 NAtoms=   15 NActive=   15 NUniq=    9 SFac= 2.78D+00 NAtFMM=   50 NAOKFM=F Big=F
 One-electron integrals computed using PRISM.
 NBasis=   145 RedAO= T  NBF=    79    66
 NBsUse=   145 1.00D-06 NBFU=    79    66
 Harris functional with IExCor= 1009 diagonalized for initial guess.
 ExpMin= 1.61D-01 ExpMax= 4.17D+03 ExpMxC= 6.27D+02 IAcc=1 IRadAn=         1 AccDes= 0.00D+00
 HarFok:  IExCor= 1009 AccDes= 0.00D+00 IRadAn=         1 IDoV= 1
 ScaDFX=  1.000000  1.000000  1.000000  1.000000
 FoFCou: FMM=F IPFlag=           0 FMFlag=      100000 FMFlg1=           0
         NFxFlg=           0 DoJE=T BraDBF=F KetDBF=T FulRan=T
         Omega=  0.000000  0.000000  1.000000  0.000000  0.000000 ICntrl=     500 IOpCl=  0
         NMat0=    1 NMatS0=    1 NMatT0=    0 NMatD0=    1 NMtDS0=    0 NMtDT0=    0
         I1Cent=           4 NGrid=           0.
 Petite list used in FoFCou.
 Mixing orbitals, IMix= 1 IMixAn=  0 NRI=1 NE=   26 Coef=  7.07106781D-01  7.07106781D-01
 Mixing orbitals, IMix= 1 IMixAn=  0 NRI=1 NE=   26 Coef= -7.07106781D-01  7.07106781D-01
 Initial guess orbital symmetries:
 Alpha Orbitals:
       Occupied  (A') (A") (A') (A') (A") (A") (A') (A') (A') (A')
                 (A") (A") (A') (A') (A') (A") (A') (A") (A') (A")
                 (A') (A") (A') (A') (A') (?A)
       Virtual   (?A) (A") (A") (A') (A") (A') (A') (A') (A') (A")
                 (A') (A") (A") (A') (A") (A") (A") (A') (A') (A")
                 (A') (A') (A") (A') (A") (A') (A') (A") (A') (A")
                 (A') (A') (A") (A") (A') (A') (A") (A") (A') (A')
                 (A") (A') (A') (A') (A") (A") (A") (A') (A') (A')
                 (A") (A") (A') (A') (A') (A") (A') (A") (A') (A")
                 (A') (A') (A") (A') (A") (A") (A') (A') (A') (A")
                 (A") (A') (A') (A") (A') (A") (A') (A") (A') (A')
                 (A") (A') (A") (A") (A') (A") (A") (A') (A") (A')
                 (A') (A") (A') (A") (A") (A") (A') (A") (A') (A")
                 (A") (A') (A") (A") (A') (A') (A") (A') (A") (A')
                 (A') (A") (A') (A") (A') (A') (A") (A') (A")
 Beta  Orbitals:
       Occupied  (A') (A") (A') (A') (A") (A") (A') (A') (A') (A')
                 (A") (A") (A') (A') (A') (A") (A') (A") (A') (A")
                 (A') (A") (A') (A') (A') (?A)
       Virtual   (?A) (A") (A") (A') (A") (A') (A') (A') (A') (A")
                 (A') (A") (A") (A') (A") (A") (A") (A') (A') (A")
                 (A') (A') (A") (A') (A") (A') (A') (A") (A') (A")
                 (A') (A') (A") (A") (A') (A') (A") (A") (A') (A')
                 (A") (A') (A') (A') (A") (A") (A") (A') (A') (A')
                 (A") (A") (A') (A') (A') (A") (A') (A") (A') (A")
                 (A') (A') (A") (A') (A") (A") (A') (A') (A') (A")
                 (A") (A') (A') (A") (A') (A") (A') (A") (A') (A')
                 (A") (A') (A") (A") (A') (A") (A") (A') (A") (A')
                 (A') (A") (A') (A") (A") (A") (A') (A") (A') (A")
                 (A") (A') (A") (A") (A') (A') (A") (A') (A") (A')
                 (A') (A") (A') (A") (A') (A') (A") (A') (A")
 Initial guess <Sx>= 0.0000 <Sy>= 0.0000 <Sz>= 0.0000 <S**2>= 1.0000 S= 0.6180
 Requested convergence on RMS density matrix=1.00D-08 within 128 cycles.
 Requested convergence on MAX density matrix=1.00D-06.
 Requested convergence on             energy=1.00D-06.
 No special actions if energy rises.
 Keep R1 and R2 ints in memory in canonical form, NReq=113817774.
 Integral accuracy reduced to 1.0D-05 until final iterations.
 An orbital has undefined symmetry, so N**3 symmetry is turned off.
 Density matrix breaks symmetry, PCut= 1.00D-04
 Density matrix has no symmetry -- integrals replicated.
 Density matrix breaks symmetry, PCut= 1.00D-04
 Density matrix has no symmetry -- integrals replicated.
 Density matrix breaks symmetry, PCut= 1.00D-04
 Density matrix has no symmetry -- integrals replicated.
 Density matrix breaks symmetry, PCut= 1.00D-04
 Density matrix has no symmetry -- integrals replicated.
 Density matrix breaks symmetry, PCut= 1.00D-04
 Density matrix has no symmetry -- integrals replicated.
 Density matrix breaks symmetry, PCut= 1.00D-04
 Density matrix has no symmetry -- integrals replicated.
 Density matrix breaks symmetry, PCut= 1.00D-04
 Density matrix has no symmetry -- integrals replicated.
 Density matrix breaks symmetry, PCut= 1.00D-04
 Density matrix has no symmetry -- integrals replicated.
 Density matrix breaks symmetry, PCut= 1.00D-04
 Density matrix has no symmetry -- integrals replicated.
 Density matrix breaks symmetry, PCut= 1.00D-04
 Density matrix has no symmetry -- integrals replicated.
 Density matrix breaks symmetry, PCut= 1.00D-04
 Density matrix has no symmetry -- integrals replicated.
 Density matrix breaks symmetry, PCut= 1.00D-04
 Density matrix has no symmetry -- integrals replicated.
 Initial convergence to 1.0D-05 achieved.  Increase integral accuracy.
 Density matrix breaks symmetry, PCut= 1.00D-04
 Density matrix has no symmetry -- integrals replicated.
 Density matrix breaks symmetry, PCut= 1.00D-04
 Density matrix has no symmetry -- integrals replicated.
 Density matrix breaks symmetry, PCut= 1.00D-04
 Density matrix has no symmetry -- integrals replicated.
 Density matrix breaks symmetry, PCut= 1.00D-04
 Density matrix has no symmetry -- integrals replicated.
 Density matrix breaks symmetry, PCut= 1.00D-04
 Density matrix has no symmetry -- integrals replicated.
 Density matrix breaks symmetry, PCut= 1.00D-04
 Density matrix has no symmetry -- integrals replicated.
 Density matrix breaks symmetry, PCut= 1.00D-04
 Density matrix has no symmetry -- integrals replicated.
 Density matrix breaks symmetry, PCut= 1.00D-04
 Density matrix has no symmetry -- integrals replicated.
 Density matrix breaks symmetry, PCut= 1.00D-04
 Density matrix has no symmetry -- integrals replicated.
 Density matrix breaks symmetry, PCut= 1.00D-04
 Density matrix has no symmetry -- integrals replicated.
 Density matrix breaks symmetry, PCut= 1.00D-04
 Density matrix has no symmetry -- integrals replicated.
 Density matrix breaks symmetry, PCut= 1.00D-04
 Density matrix has no symmetry -- integrals replicated.
 Density matrix breaks symmetry, PCut= 1.00D-04
 Density matrix has no symmetry -- integrals replicated.
 Density matrix breaks symmetry, PCut= 1.00D-04
 Density matrix has no symmetry -- integrals replicated.
 SCF Done:  E(UM062X) =  -304.591889826     A.U. after   25 cycles
             Convg  =    0.3544D-08             -V/T =  2.0087
 <Sx>= 0.0000 <Sy>= 0.0000 <Sz>= 0.0000 <S**2>= 0.6153 S= 0.4302
 <L.S>= 0.000000000000E+00
 Annihilation of the first spin contaminant:
 S**2 before annihilation     0.6153,   after     0.0479
 QCSCF skips out because SCF is already converged.
 Range of M.O.s used for correlation:     1   145
 NBasis=   145 NAE=    26 NBE=    26 NFC=     0 NFV=     0
 NROrb=    145 NOA=    26 NOB=    26 NVA=   119 NVB=   119
 Symmetrizing basis deriv contribution to polar:
 IMax=3 JMax=2 DiffMx= 0.00D+00
 G2DrvN: will do    16 centers at a time, making    1 passes doing MaxLOS=2.
 Calling FoFCou, ICntrl=  3107 FMM=F I1Cent=   0 AccDes= 0.00D+00.
 FoFDir/FoFCou used for L=0 through L=2.
 End of G2Drv Frequency-dependent properties file   721 does not exist.
 End of G2Drv Frequency-dependent properties file   722 does not exist.
          IDoAtm=111111111111111
          Differentiating once with respect to nuclear coordinates.
          Keep R1 and R2 ints in memory in canonical form, NReq=112877611.
          There are    48 degrees of freedom in the 1st order CPHF.  IDoFFX=5.
     42 vectors produced by pass  0 Test12= 1.29D-10 2.08D-07 XBig12= 2.14D-01 1.38D-01.
 AX will form    42 AO Fock derivatives at one time.
     42 vectors produced by pass  1 Test12= 1.29D-10 2.08D-07 XBig12= 2.71D-02 3.13D-02.
     42 vectors produced by pass  2 Test12= 1.29D-10 2.08D-07 XBig12= 9.28D-04 5.93D-03.
     42 vectors produced by pass  3 Test12= 1.29D-10 2.08D-07 XBig12= 1.29D-05 5.04D-04.
     42 vectors produced by pass  4 Test12= 1.29D-10 2.08D-07 XBig12= 1.07D-07 4.68D-05.
     25 vectors produced by pass  5 Test12= 1.29D-10 2.08D-07 XBig12= 6.83D-10 3.43D-06.
      1 vectors produced by pass  6 Test12= 1.29D-10 2.08D-07 XBig12= 4.28D-12 2.32D-07.
 Inverted reduced A of dimension   236 with in-core refinement.
 End of Minotr Frequency-dependent properties file   721 does not exist.
 End of Minotr Frequency-dependent properties file   722 does not exist.

 **********************************************************************

            Population analysis using the SCF density.

 **********************************************************************

 Orbital symmetries:
 Alpha Orbitals:
       Occupied  (?A) (?A) (A") (A") (A") (?A) (?A) (?B) (?B) (?B)
                 (?B) (?B) (?B) (?B) (?B) (?B) (?B) (?B) (?B) (?B)
                 (?B) (?B) (?B) (?B) (?B) (?B)
       Virtual   (?B) (?B) (?B) (?B) (?B) (?B) (?B) (?B) (?B) (?B)
                 (?B) (?B) (?B) (?B) (?B) (?B) (?B) (?B) (?B) (?B)
                 (?B) (?B) (?B) (?B) (?B) (?B) (?B) (?B) (?B) (?B)
                 (?B) (?B) (?B) (?B) (?B) (?B) (?B) (?B) (?B) (?B)
                 (?B) (?B) (?B) (?B) (?B) (?B) (?B) (?B) (?B) (?B)
                 (?B) (?B) (?B) (?B) (?B) (?B) (?B) (?B) (?B) (?B)
                 (?B) (?B) (?B) (?B) (?B) (?B) (?B) (?B) (?B) (?B)
                 (?B) (?B) (?B) (?B) (?B) (?B) (?B) (?B) (?B) (?B)
                 (?B) (?B) (?B) (?B) (?B) (?B) (?B) (?B) (?B) (?B)
                 (?B) (?B) (?B) (?B) (?B) (?B) (?B) (?B) (?B) (?B)
                 (?B) (?B) (?B) (?B) (?B) (?B) (?B) (?B) (?B) (?B)
                 (?B) (?B) (?B) (A") (?C) (?C) (?C) (?C) (?C)
 Beta  Orbitals:
       Occupied  (?A) (?A) (A") (A") (A") (?A) (?A) (?B) (?B) (?B)
                 (?B) (?B) (?B) (?B) (?B) (?B) (?B) (?B) (?B) (?B)
                 (?B) (?B) (?B) (?B) (?B) (?B)
       Virtual   (?B) (?B) (?B) (?B) (?B) (?B) (?B) (?B) (?B) (?B)
                 (?B) (?B) (?B) (?B) (?B) (?B) (?B) (?B) (?B) (?B)
                 (?B) (?B) (?B) (?B) (?B) (?B) (?B) (?B) (?B) (?B)
                 (?B) (?B) (?B) (?B) (?B) (?B) (?B) (?B) (?B) (?B)
                 (?B) (?B) (?B) (?B) (?B) (?B) (?B) (?B) (?B) (?B)
                 (?B) (?B) (?B) (?B) (?B) (?B) (?B) (?B) (?B) (?B)
                 (?B) (?B) (?B) (?B) (?B) (?B) (?B) (?B) (?B) (?B)
                 (?B) (?B) (?B) (?B) (?B) (?B) (?B) (?B) (?B) (?B)
                 (?B) (?B) (?B) (?B) (?B) (?B) (?B) (?B) (?B) (?B)
                 (?B) (?B) (?B) (?B) (?B) (?B) (?B) (?B) (?B) (?B)
                 (?B) (?B) (?B) (?B) (?B) (?B) (?B) (?B) (?B) (?B)
                 (?B) (?B) (?B) (A") (?C) (?C) (?C) (?C) (?C)
 Unable to determine electronic state:  an orbital has unidentified symmetry.
 Alpha  occ. eigenvalues --  -14.82157 -14.81919 -10.56530 -10.55976 -10.55357
 Alpha  occ. eigenvalues --  -10.55013 -10.54954  -1.17273  -0.94660  -0.81432
 Alpha  occ. eigenvalues --   -0.79450  -0.64797  -0.63370  -0.60299  -0.57202
 Alpha  occ. eigenvalues --   -0.55875  -0.50771  -0.46422  -0.45413  -0.43964
 Alpha  occ. eigenvalues --   -0.43592  -0.42529  -0.41825  -0.40719  -0.40419
 Alpha  occ. eigenvalues --   -0.22125
 Alpha virt. eigenvalues --   -0.00148   0.06506   0.12644   0.13723   0.17586
 Alpha virt. eigenvalues --    0.19095   0.19534   0.20777   0.21456   0.21812
 Alpha virt. eigenvalues --    0.23409   0.24219   0.27181   0.30276   0.33186
 Alpha virt. eigenvalues --    0.38499   0.48267   0.55546   0.56672   0.58734
 Alpha virt. eigenvalues --    0.59325   0.61178   0.62523   0.63871   0.70196
 Alpha virt. eigenvalues --    0.70500   0.72922   0.74129   0.75903   0.78524
 Alpha virt. eigenvalues --    0.80038   0.82273   0.85051   0.87795   0.88545
 Alpha virt. eigenvalues --    0.89903   0.90143   0.91039   0.93566   0.95501
 Alpha virt. eigenvalues --    0.97721   0.98339   0.99014   0.99127   0.99719
 Alpha virt. eigenvalues --    1.04409   1.19754   1.23350   1.27963   1.31196
 Alpha virt. eigenvalues --    1.34310   1.37492   1.38001   1.56072   1.59786
 Alpha virt. eigenvalues --    1.62870   1.64279   1.64756   1.70270   1.74324
 Alpha virt. eigenvalues --    1.77331   1.80616   1.81843   1.86727   1.87993
 Alpha virt. eigenvalues --    1.93232   1.95348   1.99062   2.02048   2.03379
 Alpha virt. eigenvalues --    2.05698   2.09820   2.10720   2.11267   2.15911
 Alpha virt. eigenvalues --    2.25162   2.26280   2.30503   2.31432   2.33232
 Alpha virt. eigenvalues --    2.33688   2.39348   2.43988   2.45723   2.48321
 Alpha virt. eigenvalues --    2.49677   2.52218   2.55020   2.55978   2.59070
 Alpha virt. eigenvalues --    2.60393   2.61461   2.68399   2.70036   2.73220
 Alpha virt. eigenvalues --    2.77583   2.78457   2.79179   2.79359   2.83611
 Alpha virt. eigenvalues --    2.90793   2.92229   2.96035   3.05721   3.21473
 Alpha virt. eigenvalues --    3.24921   3.32090   3.36797   3.38755   3.40873
 Alpha virt. eigenvalues --    3.50402   3.52325   3.58492   3.94936   4.44203
 Alpha virt. eigenvalues --    4.50365   4.53278   4.73525   4.81022
  Beta  occ. eigenvalues --  -14.82157 -14.81919 -10.56530 -10.55976 -10.55357
  Beta  occ. eigenvalues --  -10.55013 -10.54954  -1.17273  -0.94660  -0.81432
  Beta  occ. eigenvalues --   -0.79450  -0.64797  -0.63370  -0.60299  -0.57202
  Beta  occ. eigenvalues --   -0.55875  -0.50771  -0.46422  -0.45413  -0.43964
  Beta  occ. eigenvalues --   -0.43592  -0.42529  -0.41825  -0.40719  -0.40419
  Beta  occ. eigenvalues --   -0.22125
  Beta virt. eigenvalues --   -0.00148   0.06506   0.12644   0.13723   0.17586
  Beta virt. eigenvalues --    0.19095   0.19534   0.20777   0.21456   0.21812
  Beta virt. eigenvalues --    0.23409   0.24219   0.27181   0.30276   0.33186
  Beta virt. eigenvalues --    0.38499   0.48267   0.55546   0.56672   0.58734
  Beta virt. eigenvalues --    0.59325   0.61178   0.62523   0.63871   0.70196
  Beta virt. eigenvalues --    0.70500   0.72922   0.74129   0.75903   0.78524
  Beta virt. eigenvalues --    0.80038   0.82273   0.85051   0.87795   0.88545
  Beta virt. eigenvalues --    0.89903   0.90143   0.91039   0.93566   0.95501
  Beta virt. eigenvalues --    0.97721   0.98339   0.99014   0.99127   0.99719
  Beta virt. eigenvalues --    1.04409   1.19754   1.23350   1.27963   1.31196
  Beta virt. eigenvalues --    1.34310   1.37492   1.38001   1.56072   1.59786
  Beta virt. eigenvalues --    1.62870   1.64279   1.64756   1.70270   1.74324
  Beta virt. eigenvalues --    1.77331   1.80616   1.81843   1.86727   1.87993
  Beta virt. eigenvalues --    1.93232   1.95348   1.99062   2.02048   2.03379
  Beta virt. eigenvalues --    2.05698   2.09820   2.10720   2.11267   2.15911
  Beta virt. eigenvalues --    2.25162   2.26280   2.30503   2.31432   2.33232
  Beta virt. eigenvalues --    2.33688   2.39348   2.43988   2.45723   2.48321
  Beta virt. eigenvalues --    2.49677   2.52218   2.55020   2.55978   2.59070
  Beta virt. eigenvalues --    2.60393   2.61461   2.68399   2.70036   2.73220
  Beta virt. eigenvalues --    2.77583   2.78457   2.79179   2.79359   2.83611
  Beta virt. eigenvalues --    2.90793   2.92229   2.96035   3.05721   3.21473
  Beta virt. eigenvalues --    3.24921   3.32090   3.36797   3.38755   3.40873
  Beta virt. eigenvalues --    3.50402   3.52325   3.58492   3.94936   4.44203
  Beta virt. eigenvalues --    4.50365   4.53278   4.73525   4.81022
          Condensed to atoms (all electrons):
              1          2          3          4          5          6
     1  C    4.988491   0.393345   0.387954   0.350876  -0.035442  -0.029412
     2  H    0.393345   0.591193  -0.034082  -0.035442  -0.010732   0.003804
     3  H    0.387954  -0.034082   0.569173  -0.029412   0.003804  -0.008642
     4  C    0.350876  -0.035442  -0.029412   4.988491   0.393345   0.387954
     5  H   -0.035442  -0.010732   0.003804   0.393345   0.591193  -0.034082
     6  H   -0.029412   0.003804  -0.008642   0.387954  -0.034082   0.569173
     7  C    0.376644  -0.042233  -0.040846  -0.065613   0.002880   0.003696
     8  H   -0.035095  -0.001768   0.000210   0.004910  -0.000095  -0.000122
     9  C   -0.065613   0.002880   0.003696   0.376644  -0.042233  -0.040846
    10  H    0.004910  -0.000095  -0.000122  -0.035095  -0.001768   0.000210
    11  N   -0.018213   0.001004  -0.000338  -0.003559  -0.000027   0.000681
    12  N   -0.003559  -0.000027   0.000681  -0.018213   0.001004  -0.000338
    13  C   -0.082097   0.001450   0.005448  -0.082097   0.001450   0.005448
    14  H   -0.000198   0.000551  -0.000074  -0.000198   0.000551  -0.000074
    15  H    0.004971  -0.000099  -0.000126   0.004971  -0.000099  -0.000126
              7          8          9         10         11         12
     1  C    0.376644  -0.035095  -0.065613   0.004910  -0.018213  -0.003559
     2  H   -0.042233  -0.001768   0.002880  -0.000095   0.001004  -0.000027
     3  H   -0.040846   0.000210   0.003696  -0.000122  -0.000338   0.000681
     4  C   -0.065613   0.004910   0.376644  -0.035095  -0.003559  -0.018213
     5  H    0.002880  -0.000095  -0.042233  -0.001768  -0.000027   0.001004
     6  H    0.003696  -0.000122  -0.040846   0.000210   0.000681  -0.000338
     7  C    5.275972   0.385679  -0.101185   0.005276   0.055286  -0.041629
     8  H    0.385679   0.558703   0.005276  -0.000127  -0.004910   0.001222
     9  C   -0.101185   0.005276   5.275972   0.385679  -0.041629   0.055286
    10  H    0.005276  -0.000127   0.385679   0.558703   0.001222  -0.004910
    11  N    0.055286  -0.004910  -0.041629   0.001222   6.670851   0.447621
    12  N   -0.041629   0.001222   0.055286  -0.004910   0.447621   6.670851
    13  C    0.366540  -0.033948   0.366540  -0.033948  -0.026001  -0.026001
    14  H   -0.037623  -0.000234  -0.037623  -0.000234   0.001300   0.001300
    15  H   -0.031774  -0.001480  -0.031774  -0.001480  -0.000339  -0.000339
             13         14         15
     1  C   -0.082097  -0.000198   0.004971
     2  H    0.001450   0.000551  -0.000099
     3  H    0.005448  -0.000074  -0.000126
     4  C   -0.082097  -0.000198   0.004971
     5  H    0.001450   0.000551  -0.000099
     6  H    0.005448  -0.000074  -0.000126
     7  C    0.366540  -0.037623  -0.031774
     8  H   -0.033948  -0.000234  -0.001480
     9  C    0.366540  -0.037623  -0.031774
    10  H   -0.033948  -0.000234  -0.001480
    11  N   -0.026001   0.001300  -0.000339
    12  N   -0.026001   0.001300  -0.000339
    13  C    5.010663   0.374363   0.386562
    14  H    0.374363   0.566700  -0.024664
    15  H    0.386562  -0.024664   0.543827
 Mulliken atomic charges:
              1
     1  C   -0.237563
     2  H    0.130253
     3  H    0.142678
     4  C   -0.237563
     5  H    0.130253
     6  H    0.142678
     7  C   -0.111073
     8  H    0.121777
     9  C   -0.111073
    10  H    0.121777
    11  N   -0.082950
    12  N   -0.082950
    13  C   -0.234373
    14  H    0.156159
    15  H    0.151970
 Sum of Mulliken atomic charges =   0.00000
 Mulliken charges with hydrogens summed into heavy atoms:
              1
     1  C    0.035367
     4  C    0.035367
     7  C    0.010705
     9  C    0.010705
    11  N   -0.082950
    12  N   -0.082950
    13  C    0.073756
 Sum of Mulliken charges with hydrogens summed into heavy atoms =   0.00000
          Atomic-Atomic Spin Densities.
              1          2          3          4          5          6
     1  C   -0.051491   0.009664   0.004005   0.000000   0.003288  -0.001260
     2  H    0.009664   0.045289  -0.010131  -0.003288   0.000000  -0.000087
     3  H    0.004005  -0.010131   0.035812   0.001260   0.000087   0.000000
     4  C    0.000000  -0.003288   0.001260   0.051491  -0.009664  -0.004005
     5  H    0.003288   0.000000   0.000087  -0.009664  -0.045289   0.010131
     6  H   -0.001260  -0.000087   0.000000  -0.004005   0.010131  -0.035812
     7  C   -0.025523  -0.014087  -0.015897  -0.003600  -0.000176   0.000483
     8  H    0.001977  -0.000892   0.000757   0.000061  -0.000020   0.000018
     9  C    0.003600   0.000176  -0.000483   0.025523   0.014087   0.015897
    10  H   -0.000061   0.000020  -0.000018  -0.001977   0.000892  -0.000757
    11  N    0.002337  -0.000199   0.002515  -0.001762   0.000204  -0.000945
    12  N    0.001762  -0.000204   0.000945  -0.002337   0.000199  -0.002515
    13  C    0.000737  -0.000918   0.000848  -0.000737   0.000918  -0.000848
    14  H    0.001235   0.001530  -0.000239  -0.001235  -0.001530   0.000239
    15  H    0.000032  -0.000105   0.000066  -0.000032   0.000105  -0.000066
              7          8          9         10         11         12
     1  C   -0.025523   0.001977   0.003600  -0.000061   0.002337   0.001762
     2  H   -0.014087  -0.000892   0.000176   0.000020  -0.000199  -0.000204
     3  H   -0.015897   0.000757  -0.000483  -0.000018   0.002515   0.000945
     4  C   -0.003600   0.000061   0.025523  -0.001977  -0.001762  -0.002337
     5  H   -0.000176  -0.000020   0.014087   0.000892   0.000204   0.000199
     6  H    0.000483   0.000018   0.015897  -0.000757  -0.000945  -0.002515
     7  C    0.894323  -0.005839   0.000000   0.000368  -0.044804  -0.028721
     8  H   -0.005839  -0.033418  -0.000368   0.000000   0.001882   0.000182
     9  C    0.000000  -0.000368  -0.894323   0.005839   0.028721   0.044804
    10  H    0.000368   0.000000   0.005839   0.033418  -0.000182  -0.001882
    11  N   -0.044804   0.001882   0.028721  -0.000182  -0.171736   0.000000
    12  N   -0.028721   0.000182   0.044804  -0.001882   0.000000   0.171736
    13  C   -0.029561   0.002553   0.029561  -0.002553  -0.000811   0.000811
    14  H   -0.011680  -0.001484   0.011680   0.001484   0.000679  -0.000679
    15  H   -0.011918   0.000829   0.011918  -0.000829  -0.001862   0.001862
             13         14         15
     1  C    0.000737   0.001235   0.000032
     2  H   -0.000918   0.001530  -0.000105
     3  H    0.000848  -0.000239   0.000066
     4  C   -0.000737  -0.001235  -0.000032
     5  H    0.000918  -0.001530   0.000105
     6  H   -0.000848   0.000239  -0.000066
     7  C   -0.029561  -0.011680  -0.011918
     8  H    0.002553  -0.001484   0.000829
     9  C    0.029561   0.011680   0.011918
    10  H   -0.002553   0.001484  -0.000829
    11  N   -0.000811   0.000679  -0.001862
    12  N    0.000811  -0.000679   0.001862
    13  C    0.000000   0.000000   0.000000
    14  H    0.000000   0.000000   0.000000
    15  H    0.000000   0.000000   0.000000
 Mulliken atomic spin densities:
              1
     1  C   -0.049697
     2  H    0.026767
     3  H    0.019526
     4  C    0.049697
     5  H   -0.026767
     6  H   -0.019526
     7  C    0.703368
     8  H   -0.033761
     9  C   -0.703368
    10  H    0.033761
    11  N   -0.185963
    12  N    0.185963
    13  C    0.000000
    14  H    0.000000
    15  H    0.000000
 Sum of Mulliken atomic spin densities =   0.00000
 APT atomic charges:
              1
     1  C   -0.855196
     2  H    0.474434
     3  H    0.389954
     4  C   -0.855196
     5  H    0.474434
     6  H    0.389954
     7  C   -0.419810
     8  H    0.505863
     9  C   -0.419810
    10  H    0.505863
    11  N   -0.112326
    12  N   -0.112326
    13  C   -0.835892
    14  H    0.437257
    15  H    0.432795
 Sum of APT charges=   0.00000
 APT Atomic charges with hydrogens summed into heavy atoms:
              1
     1  C    0.009192
     2  H    0.000000
     3  H    0.000000
     4  C    0.009192
     5  H    0.000000
     6  H    0.000000
     7  C    0.086053
     8  H    0.000000
     9  C    0.086053
    10  H    0.000000
    11  N   -0.112326
    12  N   -0.112326
    13  C    0.034161
    14  H    0.000000
    15  H    0.000000
 Sum of APT charges=   0.00000
 Electronic spatial extent (au):  <R**2>=            613.4439
 Charge=              0.0000 electrons
 Dipole moment (field-independent basis, Debye):
    X=             -2.4103    Y=             -0.4768    Z=              0.0000  Tot=              2.4570
 Quadrupole moment (field-independent basis, Debye-Ang):
   XX=            -44.3716   YY=            -40.5740   ZZ=            -41.7813
   XY=             -1.7212   XZ=              0.0000   YZ=              0.0000
 Traceless Quadrupole moment (field-independent basis, Debye-Ang):
   XX=             -2.1293   YY=              1.6683   ZZ=              0.4610
   XY=             -1.7212   XZ=              0.0000   YZ=              0.0000
 Octapole moment (field-independent basis, Debye-Ang**2):
  XXX=             -4.6169  YYY=              3.2161  ZZZ=              0.0000  XYY=              0.2696
  XXY=             -2.3765  XXZ=              0.0000  XZZ=             -2.5075  YZZ=              0.2298
  YYZ=              0.0000  XYZ=              0.0000
 Hexadecapole moment (field-independent basis, Debye-Ang**3):
 XXXX=           -301.3743 YYYY=           -264.8655 ZZZZ=           -238.2183 XXXY=            -30.1552
 XXXZ=              0.0000 YYYX=            -27.4307 YYYZ=              0.0000 ZZZX=              0.0000
 ZZZY=              0.0000 XXYY=            -92.2526 XXZZ=            -97.4260 YYZZ=            -86.1823
 XXYZ=              0.0000 YYXZ=              0.0000 ZZXY=            -11.9007
 N-N= 2.961465797823D+02 E-N=-1.949079647569D+03  KE= 4.529610364286D+02
 Symmetry A'   KE= 2.615839065762D+02
 Symmetry A"   KE= 1.913771298524D+02
  Exact polarizability:   0.000   0.000   0.000   0.000   0.000   0.000
 Approx polarizability:  88.282   3.939  66.669   0.000   0.000  97.715
                          Isotropic Fermi Contact Couplings
        Atom                 a.u.       MegaHertz       Gauss      10(-4) cm-1
     1  C(13)             -0.02238     -12.57863      -4.48837      -4.19578
     2  H(2)               0.01440       4.94014       1.76276       1.64785
     3  H(1)               0.00884      19.76177       7.05149       6.59182
     4  C(13)              0.02238      12.57863       4.48837       4.19578
     5  H(2)              -0.01440      -4.94014      -1.76276      -1.64785
     6  H(1)              -0.00884     -19.76177      -7.05149      -6.59182
     7  C(13)              0.18835     105.87313      37.77816      35.31547
     8  H(1)              -0.01018     -22.75334      -8.11896      -7.58970
     9  C(13)             -0.18835    -105.87313     -37.77816     -35.31547
    10  H(1)               0.01018      22.75334       8.11896       7.58970
    11  N(14)              0.06202      10.01927       3.57513       3.34207
    12  N(14)             -0.06202     -10.01927      -3.57513      -3.34207
    13  C(13)              0.00000       0.00000       0.00000       0.00000
    14  H(1)               0.00000       0.00000       0.00000       0.00000
    15  H(1)               0.00000       0.00000       0.00000       0.00000
 --------------------------------------------------------
       Center         ----  Spin Dipole Couplings  ----
                      3XX-RR        3YY-RR        3ZZ-RR
 --------------------------------------------------------
     1   Atom        0.002418      0.007068     -0.009486
     2   Atom       -0.001503      0.008844     -0.007341
     3   Atom       -0.002522      0.010101     -0.007579
     4   Atom       -0.002418     -0.007068      0.009486
     5   Atom        0.001503     -0.008844      0.007341
     6   Atom        0.002522     -0.010101      0.007579
     7   Atom        0.666546     -0.312557     -0.353989
     8   Atom       -0.005704     -0.035188      0.040892
     9   Atom       -0.666546      0.312557      0.353989
    10   Atom        0.005704      0.035188     -0.040892
    11   Atom       -0.371037      0.112247      0.258790
    12   Atom        0.371037     -0.112247     -0.258790
    13   Atom        0.000000      0.000000      0.000000
    14   Atom        0.000000      0.000000      0.000000
    15   Atom        0.000000      0.000000      0.000000
 --------------------------------------------------------
                        XY            XZ            YZ
 --------------------------------------------------------
     1   Atom        0.003978      0.000370      0.008316
     2   Atom        0.003838      0.000421      0.004044
     3   Atom       -0.005059     -0.002209      0.003198
     4   Atom       -0.003978      0.000370      0.008316
     5   Atom       -0.003838      0.000421      0.004044
     6   Atom        0.005059     -0.002209      0.003198
     7   Atom        0.194250     -0.116504     -0.018859
     8   Atom        0.005257     -0.011514      0.028275
     9   Atom       -0.194250     -0.116504     -0.018859
    10   Atom       -0.005257     -0.011514      0.028275
    11   Atom       -0.063576      0.138791      0.005926
    12   Atom        0.063576      0.138791      0.005926
    13   Atom        0.000000      0.017578     -0.011599
    14   Atom        0.000000      0.012942     -0.011163
    15   Atom        0.000000      0.001611     -0.017589
 --------------------------------------------------------


 ---------------------------------------------------------------------------------
              Anisotropic Spin Dipole Couplings in Principal Axis System
 ---------------------------------------------------------------------------------

       Atom             a.u.   MegaHertz   Gauss  10(-4) cm-1        Axes

              Baa    -0.0130    -1.749    -0.624    -0.584  0.0796 -0.3944  0.9155
     1 C(13)  Bbb     0.0010     0.133     0.047     0.044  0.9255 -0.3118 -0.2148
              Bcc     0.0120     1.616     0.577     0.539  0.3702  0.8644  0.3402
 
              Baa    -0.0083    -0.682    -0.244    -0.228  0.0782 -0.2450  0.9664
     2 H(2)   Bbb    -0.0026    -0.217    -0.077    -0.072  0.9527 -0.2673 -0.1448
              Bcc     0.0110     0.899     0.321     0.300  0.2938  0.9319  0.2125
 
              Baa    -0.0085    -4.544    -1.621    -1.516  0.2774 -0.0890  0.9566
     3 H(1)   Bbb    -0.0041    -2.167    -0.773    -0.723  0.9000  0.3726 -0.2263
              Bcc     0.0126     6.711     2.395     2.239 -0.3363  0.9237  0.1834
 
              Baa    -0.0120    -1.616    -0.577    -0.539  0.3702  0.8644 -0.3402
     4 C(13)  Bbb    -0.0010    -0.133    -0.047    -0.044  0.9255 -0.3118  0.2148
              Bcc     0.0130     1.749     0.624     0.584 -0.0796  0.3944  0.9155
 
              Baa    -0.0110    -0.899    -0.321    -0.300  0.2938  0.9319 -0.2125
     5 H(2)   Bbb     0.0026     0.217     0.077     0.072  0.9527 -0.2673  0.1448
              Bcc     0.0083     0.682     0.244     0.228 -0.0782  0.2450  0.9664
 
              Baa    -0.0126    -6.711    -2.395    -2.239 -0.3363  0.9237 -0.1834
     6 H(1)   Bbb     0.0041     2.167     0.773     0.723  0.9000  0.3726  0.2263
              Bcc     0.0085     4.544     1.621     1.516 -0.2774  0.0890  0.9566
 
              Baa    -0.3676   -49.329   -17.602   -16.454  0.1400 -0.1592  0.9773
     7 C(13)  Bbb    -0.3491   -46.842   -16.714   -15.625 -0.1646  0.9695  0.1815
              Bcc     0.7167    96.171    34.316    32.079  0.9764  0.1863 -0.1095
 
              Baa    -0.0464   -24.760    -8.835    -8.259 -0.2113  0.9214 -0.3263
     8 H(1)   Bbb    -0.0054    -2.861    -1.021    -0.954  0.9640  0.2516  0.0862
              Bcc     0.0518    27.621     9.856     9.213 -0.1615  0.2963  0.9413
 
              Baa    -0.7167   -96.171   -34.316   -32.079  0.9764  0.1863  0.1095
     9 C(13)  Bbb     0.3491    46.842    16.714    15.625 -0.1646  0.9695 -0.1815
              Bcc     0.3676    49.329    17.602    16.454 -0.1400  0.1592  0.9773
 
              Baa    -0.0518   -27.621    -9.856    -9.213  0.1615 -0.2963  0.9413
    10 H(1)   Bbb     0.0054     2.861     1.021     0.954  0.9640  0.2516 -0.0862
              Bcc     0.0464    24.760     8.835     8.259 -0.2113  0.9214  0.3263
 
              Baa    -0.4080   -15.736    -5.615    -5.249  0.9716  0.1210 -0.2033
    11 N(14)  Bbb     0.1197     4.615     1.647     1.540 -0.1095  0.9917  0.0670
              Bcc     0.2883    11.120     3.968     3.709  0.2097 -0.0429  0.9768
 
              Baa    -0.2883   -11.120    -3.968    -3.709 -0.2097  0.0429  0.9768
    12 N(14)  Bbb    -0.1197    -4.615    -1.647    -1.540 -0.1095  0.9917 -0.0670
              Bcc     0.4080    15.736     5.615     5.249  0.9716  0.1210  0.2033
 
              Baa    -0.0211    -2.826    -1.008    -0.943 -0.5902  0.3895  0.7071
    13 C(13)  Bbb     0.0000     0.000     0.000     0.000  0.5508  0.8347  0.0000
              Bcc     0.0211     2.826     1.008     0.943  0.5902 -0.3895  0.7071
 
              Baa    -0.0171    -9.119    -3.254    -3.042 -0.5354  0.4618  0.7071
    14 H(1)   Bbb     0.0000     0.000     0.000     0.000  0.6531  0.7572  0.0000
              Bcc     0.0171     9.119     3.254     3.042  0.5354 -0.4618  0.7071
 
              Baa    -0.0177    -9.424    -3.363    -3.144 -0.0645  0.7042  0.7071
    15 H(1)   Bbb     0.0000     0.000     0.000     0.000  0.9958  0.0912  0.0000
              Bcc     0.0177     9.424     3.363     3.144  0.0645 -0.7042  0.7071
 

 ---------------------------------------------------------------------------------

 Density matrix is not symmetric, so symmetry will not be used here.
 Calling FoFJK, ICntrl=    100147 FMM=F ISym2X=0 I1Cent= 0 IOpClX= 1 NMat=1 NMatS=1 NMatT=0.
 ***** Axes restored to original set *****
 -------------------------------------------------------------------
 Center     Atomic                   Forces (Hartrees/Bohr)
 Number     Number              X              Y              Z
 -------------------------------------------------------------------
      1        6           0.000142265   -0.000163237   -0.000130700
      2        1           0.000062174    0.000283758   -0.000041054
      3        1          -0.000254112    0.000036426    0.000000236
      4        6           0.000142265   -0.000163237    0.000130699
      5        1           0.000062174    0.000283758    0.000041054
      6        1          -0.000254112    0.000036426   -0.000000236
      7        6          -0.000335101    0.000010986    0.000086288
      8        1           0.000034189    0.000053030   -0.000090585
      9        6          -0.000335101    0.000010987   -0.000086288
     10        1           0.000034189    0.000053030    0.000090585
     11        7          -0.000061922   -0.000187841    0.001620073
     12        7          -0.000061922   -0.000187841   -0.001620073
     13        6           0.000214252    0.000247772    0.000000000
     14        1           0.000501567    0.000001751    0.000000000
     15        1           0.000109195   -0.000315767    0.000000000
 -------------------------------------------------------------------
 Cartesian Forces:  Max     0.001620073 RMS     0.000379882

 GradGradGradGradGradGradGradGradGradGradGradGradGradGradGradGradGradGrad
 Berny optimization.
 Internal  Forces:  Max     0.001007417 RMS     0.000117393
 Search for a saddle point.
 Step number   1 out of a maximum of  100
 All quantities printed in internal units (Hartrees-Bohrs-Radians)
 Swaping is turned off.
 Second derivative matrix not updated -- analytic derivatives used.
 ITU=  0
     Eigenvalues ---   -0.03486   0.00028   0.00044   0.00203   0.00247
     Eigenvalues ---    0.00342   0.00509   0.00640   0.00792   0.00899
     Eigenvalues ---    0.01276   0.01673   0.01714   0.02438   0.02523
     Eigenvalues ---    0.02730   0.02833   0.03202   0.03286   0.04415
     Eigenvalues ---    0.04516   0.05206   0.05606   0.08953   0.12684
     Eigenvalues ---    0.13554   0.15685   0.18125   0.21102   0.21263
     Eigenvalues ---    0.26785   0.27224   0.27536   0.29057   0.31982
     Eigenvalues ---    0.32924   0.33233   0.34973   0.66201
 Eigenvectors required to have negative eigenvalues:
                          R19       R13       R21       R16       R18
   1                    0.36521   0.36521   0.26339   0.26339   0.25920
                          R14       R23       R24       R5        R10
   1                    0.25919   0.23981   0.23981   0.17711   0.17711
 RFO step:  Lambda0=1.783239499D-06 Lambda=-1.21231706D-05.
 Linear search not attempted -- option 19 set.
 Iteration  1 RMS(Cart)=  0.00140533 RMS(Int)=  0.00003578
 Iteration  2 RMS(Cart)=  0.00001062 RMS(Int)=  0.00001531
 Iteration  3 RMS(Cart)=  0.00000000 RMS(Int)=  0.00001531
 ClnCor:  largest displacement from symmetrization is 6.81D-08 for atom    12.
 Variable       Old X    -DE/DX   Delta X   Delta X   Delta X     New X
                                 (Linear)    (Quad)   (Total)
    R1        2.07481  -0.00028   0.00000  -0.00081  -0.00081   2.07400
    R2        2.06992  -0.00016   0.00000  -0.00065  -0.00065   2.06927
    R3        2.95401  -0.00001   0.00000  -0.00050  -0.00050   2.95351
    R4        2.85753   0.00001   0.00000  -0.00003  -0.00001   2.85751
    R5        5.14908  -0.00006   0.00000  -0.00227  -0.00228   5.14680
    R6        5.06929  -0.00011   0.00000  -0.00686  -0.00687   5.06243
    R7        2.07481  -0.00028   0.00000  -0.00081  -0.00081   2.07400
    R8        2.06992  -0.00016   0.00000  -0.00065  -0.00065   2.06927
    R9        2.85753   0.00001   0.00000  -0.00003  -0.00001   2.85751
   R10        5.14908  -0.00006   0.00000  -0.00227  -0.00228   5.14680
   R11        5.06929  -0.00011   0.00000  -0.00686  -0.00687   5.06243
   R12        2.04794   0.00004   0.00000  -0.00035  -0.00036   2.04758
   R13        4.03768  -0.00012   0.00000   0.00410   0.00410   4.04178
   R14        5.07159   0.00033   0.00000   0.00378   0.00377   5.07536
   R15        2.81755  -0.00027   0.00000  -0.00144  -0.00143   2.81612
   R16        5.06025  -0.00018   0.00000   0.00281   0.00283   5.06309
   R17        2.04794   0.00004   0.00000  -0.00035  -0.00036   2.04758
   R18        5.07159   0.00033   0.00000   0.00378   0.00377   5.07536
   R19        4.03768  -0.00012   0.00000   0.00410   0.00410   4.04178
   R20        2.81755  -0.00027   0.00000  -0.00144  -0.00143   2.81612
   R21        5.06025  -0.00018   0.00000   0.00281   0.00283   5.06309
   R22        2.14348   0.00101   0.00000   0.00061   0.00057   2.14405
   R23        4.98416  -0.00010   0.00000   0.00328   0.00329   4.98745
   R24        4.98416  -0.00010   0.00000   0.00328   0.00329   4.98745
   R25        2.09078  -0.00038   0.00000  -0.00066  -0.00066   2.09012
   R26        2.06554  -0.00034   0.00000  -0.00112  -0.00112   2.06443
    A1        1.85806   0.00001   0.00000   0.00001   0.00001   1.85808
    A2        1.93319  -0.00002   0.00000   0.00033   0.00032   1.93352
    A3        1.94016  -0.00005   0.00000  -0.00059  -0.00060   1.93956
    A4        2.79197  -0.00009   0.00000   0.00074   0.00074   2.79271
    A5        1.96519   0.00008   0.00000   0.00086   0.00086   1.96605
    A6        1.94374  -0.00001   0.00000  -0.00094  -0.00094   1.94280
    A7        1.82548   0.00000   0.00000   0.00031   0.00032   1.82580
    A8        1.49201   0.00010   0.00000   0.00007   0.00007   1.49208
    A9        1.93319  -0.00002   0.00000   0.00033   0.00032   1.93352
   A10        1.96519   0.00008   0.00000   0.00086   0.00086   1.96605
   A11        1.82548   0.00000   0.00000   0.00031   0.00032   1.82580
   A12        1.49201   0.00010   0.00000   0.00007   0.00007   1.49208
   A13        1.85806   0.00001   0.00000   0.00001   0.00001   1.85808
   A14        1.94016  -0.00005   0.00000  -0.00059  -0.00060   1.93956
   A15        2.79197  -0.00009   0.00000   0.00074   0.00074   2.79271
   A16        1.94374  -0.00001   0.00000  -0.00094  -0.00094   1.94280
   A17        2.12993  -0.00003   0.00000   0.00125   0.00125   2.13118
   A18        1.53485  -0.00003   0.00000  -0.00207  -0.00208   1.53277
   A19        1.88324  -0.00009   0.00000  -0.00054  -0.00054   1.88269
   A20        2.27415   0.00012   0.00000  -0.00073  -0.00072   2.27343
   A21        2.15080   0.00010   0.00000   0.00056   0.00056   2.15137
   A22        2.12993  -0.00003   0.00000   0.00125   0.00125   2.13118
   A23        1.53485  -0.00003   0.00000  -0.00207  -0.00208   1.53277
   A24        1.88324  -0.00009   0.00000  -0.00054  -0.00054   1.88269
   A25        2.27415   0.00012   0.00000  -0.00073  -0.00072   2.27343
   A26        2.15080   0.00010   0.00000   0.00056   0.00056   2.15137
   A27        0.87129   0.00002   0.00000   0.00021   0.00021   0.87151
   A28        0.93321  -0.00003   0.00000  -0.00010  -0.00010   0.93312
   A29        1.64958  -0.00010   0.00000  -0.00007  -0.00007   1.64951
   A30        0.93931  -0.00007   0.00000  -0.00053  -0.00053   0.93878
   A31        0.90641  -0.00001   0.00000   0.00041   0.00042   0.90683
   A32        1.05405   0.00000   0.00000   0.00015   0.00015   1.05420
   A33        1.28108  -0.00004   0.00000   0.00047   0.00048   1.28155
   A34        1.80991  -0.00008   0.00000   0.00050   0.00051   1.81042
   A35        1.34538  -0.00009   0.00000  -0.00037  -0.00036   1.34501
   A36        0.98279  -0.00006   0.00000  -0.00061  -0.00060   0.98219
   A37        1.35960  -0.00002   0.00000  -0.00090  -0.00090   1.35870
   A38        2.22203  -0.00009   0.00000  -0.00052  -0.00052   2.22151
   A39        0.88381   0.00000   0.00000  -0.00079  -0.00079   0.88302
   A40        0.93321  -0.00003   0.00000  -0.00010  -0.00010   0.93312
   A41        0.87129   0.00002   0.00000   0.00021   0.00021   0.87151
   A42        1.64958  -0.00010   0.00000  -0.00007  -0.00007   1.64951
   A43        0.93931  -0.00007   0.00000  -0.00053  -0.00053   0.93878
   A44        1.28108  -0.00004   0.00000   0.00047   0.00048   1.28155
   A45        0.90641  -0.00001   0.00000   0.00041   0.00042   0.90683
   A46        1.05405   0.00000   0.00000   0.00015   0.00015   1.05420
   A47        1.80991  -0.00008   0.00000   0.00050   0.00051   1.81042
   A48        1.34538  -0.00009   0.00000  -0.00037  -0.00036   1.34501
   A49        0.98279  -0.00006   0.00000  -0.00061  -0.00060   0.98219
   A50        1.35960  -0.00002   0.00000  -0.00090  -0.00090   1.35870
   A51        2.22203  -0.00009   0.00000  -0.00052  -0.00052   2.22151
   A52        0.88381   0.00000   0.00000  -0.00079  -0.00079   0.88302
   A53        1.78847   0.00022   0.00000   0.00197   0.00197   1.79044
   A54        1.88221  -0.00013   0.00000  -0.00411  -0.00415   1.87807
   A55        2.01193  -0.00004   0.00000   0.00198   0.00197   2.01390
   A56        1.88221  -0.00013   0.00000  -0.00411  -0.00415   1.87807
   A57        2.01193  -0.00004   0.00000   0.00198   0.00197   2.01390
   A58        2.81699  -0.00015   0.00000  -0.00481  -0.00489   2.81210
   A59        1.50690   0.00000   0.00000   0.00503   0.00504   1.51194
   A60        2.81699  -0.00015   0.00000  -0.00481  -0.00489   2.81210
   A61        1.50690   0.00000   0.00000   0.00503   0.00504   1.51194
   A62        1.87981   0.00011   0.00000   0.00143   0.00150   1.88131
    D1        0.00000   0.00000   0.00000   0.00000   0.00000   0.00000
    D2       -2.07832  -0.00005   0.00000  -0.00081  -0.00081  -2.07913
    D3        2.09171  -0.00007   0.00000  -0.00035  -0.00036   2.09135
    D4        2.93123  -0.00006   0.00000   0.00186   0.00186   2.93309
    D5        2.07832   0.00005   0.00000   0.00081   0.00081   2.07913
    D6        0.00000   0.00000   0.00000   0.00000   0.00000   0.00000
    D7       -2.11316  -0.00003   0.00000   0.00046   0.00046  -2.11270
    D8       -1.27364  -0.00001   0.00000   0.00267   0.00267  -1.27097
    D9       -2.09171   0.00007   0.00000   0.00035   0.00036  -2.09135
   D10        2.11316   0.00003   0.00000  -0.00046  -0.00046   2.11270
   D11        0.00000   0.00000   0.00000   0.00000   0.00000   0.00000
   D12        0.83952   0.00002   0.00000   0.00221   0.00222   0.84174
   D13       -2.93123   0.00006   0.00000  -0.00186  -0.00186  -2.93309
   D14        1.27364   0.00001   0.00000  -0.00267  -0.00267   1.27097
   D15       -0.83952  -0.00002   0.00000  -0.00221  -0.00222  -0.84174
   D16        0.00000   0.00000   0.00000   0.00000   0.00000   0.00000
   D17        0.93697   0.00000   0.00000   0.00075   0.00075   0.93772
   D18       -2.94092   0.00012   0.00000  -0.00127  -0.00127  -2.94219
   D19       -1.71286   0.00000   0.00000  -0.00175  -0.00175  -1.71460
   D20       -1.13188   0.00003   0.00000   0.00174   0.00174  -1.13014
   D21        1.27342   0.00015   0.00000  -0.00029  -0.00029   1.27313
   D22        2.50148   0.00003   0.00000  -0.00077  -0.00076   2.50072
   D23        3.02401  -0.00006   0.00000   0.00102   0.00102   3.02502
   D24       -0.85389   0.00006   0.00000  -0.00101  -0.00101  -0.85489
   D25        0.37418  -0.00006   0.00000  -0.00149  -0.00148   0.37269
   D26       -0.14854  -0.00004   0.00000  -0.00560  -0.00560  -0.15414
   D27       -2.00560   0.00000   0.00000  -0.00401  -0.00401  -2.00961
   D28       -2.53508   0.00001   0.00000  -0.00472  -0.00473  -2.53981
   D29       -1.29527  -0.00007   0.00000  -0.00474  -0.00474  -1.30001
   D30        2.38654  -0.00005   0.00000  -0.00087  -0.00088   2.38567
   D31        0.52948  -0.00002   0.00000   0.00071   0.00072   0.53020
   D32        0.00000   0.00000   0.00000   0.00000   0.00000   0.00000
   D33        1.23981  -0.00008   0.00000  -0.00001  -0.00001   1.23980
   D34       -3.02401   0.00006   0.00000  -0.00102  -0.00102  -3.02502
   D35        0.85389  -0.00006   0.00000   0.00101   0.00101   0.85489
   D36       -0.37418   0.00006   0.00000   0.00149   0.00148  -0.37269
   D37       -0.93697   0.00000   0.00000  -0.00075  -0.00075  -0.93772
   D38        2.94092  -0.00012   0.00000   0.00127   0.00127   2.94219
   D39        1.71286   0.00000   0.00000   0.00175   0.00175   1.71460
   D40        1.13188  -0.00003   0.00000  -0.00174  -0.00174   1.13014
   D41       -1.27342  -0.00015   0.00000   0.00029   0.00029  -1.27313
   D42       -2.50148  -0.00003   0.00000   0.00077   0.00076  -2.50072
   D43       -0.52948   0.00002   0.00000  -0.00071  -0.00072  -0.53020
   D44       -2.38654   0.00005   0.00000   0.00087   0.00088  -2.38567
   D45        0.00000   0.00000   0.00000   0.00000   0.00000   0.00000
   D46       -1.23981   0.00008   0.00000   0.00001   0.00001  -1.23980
   D47        2.00560   0.00000   0.00000   0.00401   0.00401   2.00961
   D48        0.14854   0.00004   0.00000   0.00560   0.00560   0.15414
   D49        2.53508  -0.00001   0.00000   0.00472   0.00473   2.53981
   D50        1.29527   0.00007   0.00000   0.00474   0.00474   1.30001
   D51        0.54785  -0.00002   0.00000   0.00070   0.00070   0.54855
   D52        0.30794   0.00001   0.00000   0.00133   0.00133   0.30928
   D53        1.26672   0.00002   0.00000   0.00148   0.00148   1.26821
   D54        1.39698   0.00002   0.00000   0.00165   0.00165   1.39863
   D55        2.84677   0.00000   0.00000  -0.00024  -0.00024   2.84653
   D56        2.60686   0.00002   0.00000   0.00039   0.00039   2.60726
   D57       -2.71754   0.00003   0.00000   0.00054   0.00054  -2.71700
   D58       -2.58728   0.00003   0.00000   0.00071   0.00071  -2.58658
   D59       -0.60036   0.00001   0.00000   0.00181   0.00180  -0.59855
   D60        1.38290  -0.00009   0.00000  -0.00347  -0.00353   1.37937
   D61       -2.79976  -0.00007   0.00000  -0.00337  -0.00339  -2.80315
   D62        3.04022   0.00005   0.00000  -0.00097  -0.00096   3.03925
   D63       -1.25971  -0.00004   0.00000  -0.00625  -0.00630  -1.26601
   D64        0.84081  -0.00003   0.00000  -0.00615  -0.00616   0.83466
   D65       -0.54785   0.00002   0.00000  -0.00070  -0.00070  -0.54855
   D66       -0.30794  -0.00001   0.00000  -0.00133  -0.00133  -0.30928
   D67       -1.26672  -0.00002   0.00000  -0.00148  -0.00148  -1.26821
   D68       -1.39698  -0.00002   0.00000  -0.00165  -0.00165  -1.39863
   D69       -2.84677   0.00000   0.00000   0.00024   0.00024  -2.84653
   D70       -2.60686  -0.00002   0.00000  -0.00039  -0.00039  -2.60726
   D71        2.71754  -0.00003   0.00000  -0.00054  -0.00054   2.71700
   D72        2.58728  -0.00003   0.00000  -0.00071  -0.00071   2.58658
   D73        0.60036  -0.00001   0.00000  -0.00181  -0.00180   0.59855
   D74       -1.38290   0.00009   0.00000   0.00347   0.00353  -1.37937
   D75        2.79976   0.00007   0.00000   0.00337   0.00339   2.80315
   D76       -3.04022  -0.00005   0.00000   0.00097   0.00096  -3.03925
   D77        1.25971   0.00004   0.00000   0.00625   0.00630   1.26601
   D78       -0.84081   0.00003   0.00000   0.00615   0.00616  -0.83466
   D79        0.00000   0.00000   0.00000   0.00000   0.00000   0.00000
   D80       -0.38010   0.00004   0.00000   0.00001   0.00001  -0.38009
   D81        0.71992   0.00000   0.00000   0.00062   0.00062   0.72054
   D82        0.38010  -0.00004   0.00000  -0.00001  -0.00001   0.38009
   D83        0.00000   0.00000   0.00000   0.00000   0.00000   0.00000
   D84        1.10002  -0.00004   0.00000   0.00062   0.00062   1.10063
   D85       -0.71992   0.00000   0.00000  -0.00062  -0.00062  -0.72054
   D86       -1.10002   0.00004   0.00000  -0.00062  -0.00062  -1.10063
   D87        0.00000   0.00000   0.00000   0.00000   0.00000   0.00000
   D88        0.44934   0.00002   0.00000  -0.01416  -0.01413   0.43521
   D89        2.89174   0.00002   0.00000  -0.00118  -0.00118   2.89056
   D90        0.40932   0.00003   0.00000  -0.01472  -0.01469   0.39463
   D91        2.85172   0.00003   0.00000  -0.00174  -0.00174   2.84998
   D92       -0.67503  -0.00005   0.00000  -0.01507  -0.01504  -0.69007
   D93        1.76737  -0.00005   0.00000  -0.00209  -0.00209   1.76528
   D94       -0.44934  -0.00002   0.00000   0.01416   0.01413  -0.43521
   D95       -2.89174  -0.00002   0.00000   0.00118   0.00118  -2.89056
   D96       -0.40932  -0.00003   0.00000   0.01472   0.01469  -0.39463
   D97       -2.85172  -0.00003   0.00000   0.00174   0.00174  -2.84998
   D98        0.67503   0.00005   0.00000   0.01507   0.01504   0.69007
   D99       -1.76737   0.00005   0.00000   0.00209   0.00209  -1.76528
         Item               Value     Threshold  Converged?
 Maximum Force            0.001007     0.000450     NO 
 RMS     Force            0.000117     0.000300     YES
 Maximum Displacement     0.009073     0.001800     NO 
 RMS     Displacement     0.001414     0.001200     NO 
 Predicted change in Energy=-5.182742D-06
 GradGradGradGradGradGradGradGradGradGradGradGradGradGradGradGradGradGrad

                          Input orientation:                          
 ---------------------------------------------------------------------
 Center     Atomic      Atomic             Coordinates (Angstroms)
 Number     Number       Type             X           Y           Z
 ---------------------------------------------------------------------
      1          6           0        0.359956   -1.252957    0.781465
      2          1           0       -0.067624   -2.185729    1.170886
      3          1           0        1.367423   -1.173690    1.203094
      4          6           0        0.359956   -1.252957   -0.781465
      5          1           0       -0.067624   -2.185729   -1.170886
      6          1           0        1.367423   -1.173690   -1.203094
      7          6           0       -0.490738   -0.062422    1.162893
      8          1           0       -0.767902    0.141859    2.190263
      9          6           0       -0.490738   -0.062422   -1.162893
     10          1           0       -0.767902    0.141859   -2.190263
     11          7           0        0.955960    1.395954    0.567291
     12          7           0        0.955960    1.395954   -0.567291
     13          6           0       -1.361921    0.268471    0.000000
     14          1           0       -2.205747   -0.446572    0.000000
     15          1           0       -1.779742    1.277861    0.000000
 ---------------------------------------------------------------------
                    Distance matrix (angstroms):
                    1          2          3          4          5
     1  C    0.000000
     2  H    1.097514   0.000000
     3  H    1.095009   1.756308   0.000000
     4  C    1.562930   2.205575   2.227049   0.000000
     5  H    2.205575   2.341771   2.952857   1.097514   0.000000
     6  H    2.227049   2.952857   2.406189   1.095009   1.756308
     7  C    1.512131   2.165068   2.165478   2.433430   3.183392
[...]
 ! D46   D(1,4,12,13)          -71.0351         -DE/DX =    0.0                 !
 ! D47   D(5,4,12,7)           115.1422         -DE/DX =    0.0                 !
 ! D48   D(5,4,12,10)            8.8316         -DE/DX =    0.0                 !
 ! D49   D(5,4,12,11)          145.5202         -DE/DX =    0.0                 !
 ! D50   D(5,4,12,13)           74.485          -DE/DX =    0.0                 !
 ! D51   D(1,7,12,4)            31.4295         -DE/DX =    0.0                 !
 ! D52   D(1,7,12,6)            17.7204         -DE/DX =    0.0                 !
 ! D53   D(1,7,12,9)            72.6629         -DE/DX =    0.0                 !
 ! D54   D(1,7,12,10)           80.1356         -DE/DX =    0.0                 !
 ! D55   D(8,7,12,4)           163.094          -DE/DX =    0.0                 !
 ! D56   D(8,7,12,6)           149.3848         -DE/DX =    0.0                 !
 ! D57   D(8,7,12,9)          -155.6726         -DE/DX =    0.0                 !
 ! D58   D(8,7,12,10)         -148.2            -DE/DX =    0.0                 !
 ! D59   D(1,7,13,9)           -34.2947         -DE/DX =    0.0                 !
 ! D60   D(1,7,13,14)           79.0319         -DE/DX =    0.0                 !
 ! D61   D(1,7,13,15)         -160.6088         -DE/DX =    0.0                 !
 ! D62   D(8,7,13,9)           174.1365         -DE/DX =    0.0                 !
 ! D63   D(8,7,13,14)          -72.537          -DE/DX =    0.0                 !
 ! D64   D(8,7,13,15)           47.8223         -DE/DX =    0.0                 !
 ! D65   D(4,9,11,1)           -31.4295         -DE/DX =    0.0                 !
 ! D66   D(4,9,11,3)           -17.7204         -DE/DX =    0.0                 !
 ! D67   D(4,9,11,7)           -72.6629         -DE/DX =    0.0                 !
 ! D68   D(4,9,11,8)           -80.1356         -DE/DX =    0.0                 !
 ! D69   D(10,9,11,1)         -163.094          -DE/DX =    0.0                 !
 ! D70   D(10,9,11,3)         -149.3848         -DE/DX =    0.0                 !
 ! D71   D(10,9,11,7)          155.6726         -DE/DX =    0.0                 !
 ! D72   D(10,9,11,8)          148.2            -DE/DX =    0.0                 !
 ! D73   D(4,9,13,7)            34.2947         -DE/DX =    0.0                 !
 ! D74   D(4,9,13,14)          -79.0319         -DE/DX =    0.0                 !
 ! D75   D(4,9,13,15)          160.6088         -DE/DX =    0.0                 !
 ! D76   D(10,9,13,7)         -174.1365         -DE/DX =    0.0                 !
 ! D77   D(10,9,13,14)          72.537          -DE/DX =    0.0                 !
 ! D78   D(10,9,13,15)         -47.8223         -DE/DX =    0.0                 !
 ! D79   D(1,11,12,4)            0.0            -DE/DX =    0.0                 !
 ! D80   D(1,11,12,6)          -21.7776         -DE/DX =    0.0                 !
 ! D81   D(1,11,12,10)          41.2841         -DE/DX =    0.0                 !
 ! D82   D(3,11,12,4)           21.7776         -DE/DX =    0.0                 !
 ! D83   D(3,11,12,6)            0.0            -DE/DX =    0.0                 !
 ! D84   D(3,11,12,10)          63.0617         -DE/DX =    0.0                 !
 ! D85   D(8,11,12,4)          -41.2841         -DE/DX =    0.0                 !
 ! D86   D(8,11,12,6)          -63.0617         -DE/DX =    0.0                 !
 ! D87   D(8,11,12,10)           0.0            -DE/DX =    0.0                 !
 ! D88   D(1,11,13,14)          24.9358         -DE/DX =    0.0                 !
 ! D89   D(1,11,13,15)         165.6169         -DE/DX =    0.0                 !
 ! D90   D(3,11,13,14)          22.6106         -DE/DX =    0.0                 !
 ! D91   D(3,11,13,15)         163.2916         -DE/DX =    0.0                 !
 ! D92   D(8,11,13,14)         -39.5382         -DE/DX =    0.0                 !
 ! D93   D(8,11,13,15)         101.1428         -DE/DX =    0.0                 !
 ! D94   D(4,12,13,14)         -24.9358         -DE/DX =    0.0                 !
 ! D95   D(4,12,13,15)        -165.6169         -DE/DX =    0.0                 !
 ! D96   D(6,12,13,14)         -22.6106         -DE/DX =    0.0                 !
 ! D97   D(6,12,13,15)        -163.2916         -DE/DX =    0.0                 !
 ! D98   D(10,12,13,14)         39.5382         -DE/DX =    0.0                 !
 ! D99   D(10,12,13,15)       -101.1428         -DE/DX =    0.0                 !
 --------------------------------------------------------------------------------
 GradGradGradGradGradGradGradGradGradGradGradGradGradGradGradGradGradGrad


 Test job not archived.
 1\1\GINC-M9-43-4\Freq\UM062X\6-31G(d,p)\C5H8N2\NKROLLIN\08-Nov-2019\0\
 \#N Geom=AllCheck Guess=TCheck SCRF=Check Test GenChk UM062X/6-31G(d,p
 ) Freq\\diazene_2_sym_tsfr\\0,1\C,0.3599563378,-1.252956532,0.78146492
 1\H,-0.0676237826,-2.1857285989,1.1708856471\H,1.3674233948,-1.1736903
 824,1.2030943614\C,0.3599563378,-1.252956532,-0.781464921\H,-0.0676237
 826,-2.1857285989,-1.1708856471\H,1.3674233948,-1.1736903824,-1.203094
 3614\C,-0.490737522,-0.0624216476,1.1628933034\H,-0.7679023242,0.14185
 85586,2.1902630635\C,-0.490737522,-0.0624216476,-1.1628933034\H,-0.767
 9023242,0.1418585586,-2.1902630635\N,0.9559599134,1.3959535807,0.56729
 12162\N,0.9559599134,1.3959535807,-0.5672912162\C,-1.3619209119,0.2684
 711088,0.\H,-2.2057470293,-0.4465716049,0.\H,-1.7797421121,1.277860513
 5,0.\\Version=EM64L-G09RevB.01\HF=-304.5918951\S2=0.617792\S2-1=0.\S2A
 =0.048308\RMSD=7.759e-10\RMSF=9.523e-06\ZeroPoint=0.115018\Thermal=0.1
 219519\Dipole=-0.6633688,-0.7013126,0.\DipoleDeriv=0.0637117,0.049691,
 0.0710908,0.0964957,0.103572,0.0103008,0.0015822,-0.0178601,-0.0739683
 ,0.0297568,-0.0546658,0.0018479,-0.0382887,-0.1246163,0.1294121,0.0145
 463,0.0289799,0.0388233,-0.070637,0.0513546,-0.1028366,-0.0268233,0.03
 85544,-0.0089,-0.0511853,-0.0115061,0.0235537,0.0637117,0.049691,-0.07
 10908,0.0964957,0.103572,-0.0103008,-0.0015822,0.01786,-0.0739683,0.02
 97568,-0.0546658,-0.0018479,-0.0382886,-0.1246163,-0.1294121,-0.014546
 3,-0.0289798,0.0388233,-0.0706369,0.0513546,0.1028366,-0.0268233,0.038
 5544,0.0089,0.0511853,0.0115062,0.0235537,-0.1297843,-0.3666069,0.0005
 744,-0.4563204,-0.3023844,-0.01653,0.2630512,0.2001157,0.0548474,0.041
 1885,0.0483421,0.0886917,0.033612,0.0488662,0.0266544,0.0141431,-0.036
 9344,-0.0659557,-0.1297842,-0.3666069,-0.0005744,-0.4563204,-0.3023844
 ,0.01653,-0.2630512,-0.2001157,0.0548474,0.0411885,0.0483421,-0.088691
 7,0.033612,0.0488662,-0.0266544,-0.0141431,0.0369344,-0.0659557,0.2401
 749,0.3356772,-0.175327,0.3584654,0.2140091,-0.1407633,-1.4630407,-1.4
 938616,-0.0211797,0.2401749,0.3356772,0.175327,0.3584654,0.2140091,0.1
 407634,1.4630407,1.4938616,-0.0211796,-0.3516825,-0.0696186,0.,-0.0340
 127,0.0293557,0.,0.,0.,-0.1696124,-0.0618293,-0.1155737,0.,-0.021165,0
 .05167,0.,0.,0.,0.1757066,0.0646906,0.0576081,0.,0.1208964,-0.0370273,
 0.,0.,0.,0.0816643\Polar=63.8901003,7.9178935,65.7155378,0.,0.,72.0260
 782\PG=CS [SG(C1H2),X(C4H6N2)]\NImag=1\\0.55962144,0.02595418,0.521363
 64,0.05306878,-0.05387171,0.44684855,-0.08752019,-0.08616020,0.0354527
 6,0.09235033,-0.09326090,-0.23245509,0.08020399,0.09580602,0.25256895,
 0.03656542,0.07430968,-0.07503525,-0.03858621,-0.08203003,0.08484609,-
 0.27458304,-0.02263832,-0.09516083,-0.01255431,-0.00174072,-0.00480246
 ,0.29584403,-0.02197437,-0.04460516,-0.00903854,-0.02740609,-0.0021964
 0,-0.01018182,0.02075821,0.05181705,-0.09128669,-0.01001752,-0.0854496
 4,0.01059876,0.00093172,0.00443100,0.10046360,0.00840619,0.09106561,-0
 .07532468,-0.00382012,-0.00235174,-0.00059097,0.00125870,0.01200611,0.
 00448866,0.00028406,-0.02539000,0.55962144,-0.00382012,-0.07309532,-0.
 00214707,0.00005044,0.00350761,0.02427572,-0.00101108,-0.00151189,-0.0
 0326526,0.02595418,0.52136364,0.00235174,0.00214707,-0.15656380,-0.001
 36411,-0.00194722,-0.01288426,0.00222075,-0.00099669,-0.00935352,-0.05
 306878,0.05387171,0.44684855,-0.00059097,0.00005044,0.00136411,0.00179
 985,0.00031679,0.00019076,0.00062731,0.00012947,-0.00068162,-0.0875201
 9,-0.08616020,-0.03545276,0.09235033,0.00125870,0.00350761,0.00194722,
 0.00031679,0.00214003,0.00038826,0.00049575,0.00027097,0.00060328,-0.0
 9326090,-0.23245510,-0.08020399,0.09580602,0.25256895,-0.01200611,-0.0
 2427572,-0.01288426,-0.00019076,-0.00038826,0.00200714,0.00058389,-0.0
 0091175,-0.00442355,-0.03656542,-0.07430968,-0.07503525,0.03858621,0.0
 8203003,0.08484609,0.00448866,-0.00101108,-0.00222075,0.00062731,0.000
 49575,-0.00058389,0.00117314,0.00018113,0.00002116,-0.27458304,-0.0226
 3832,0.09516083,-0.01255431,-0.00174072,0.00480246,0.29584403,0.000284
 06,-0.00151189,0.00099669,0.00012947,0.00027097,0.00091175,0.00018113,
 0.00091726,-0.00014025,-0.02197437,-0.04460516,0.00903854,-0.02740609,
 -0.00219640,0.01018182,0.02075821,0.05181705,0.02539000,0.00326526,-0.
 00935352,0.00068162,-0.00060328,-0.00442355,-0.00002116,0.00014025,0.0
 0211983,0.09128669,0.01001752,-0.08544964,-0.01059876,-0.00093172,0.00
 443100,-0.10046360,-0.00840619,0.09106561,-0.10607699,0.07379147,0.018
 82932,0.00765374,-0.00545265,-0.00508538,-0.01302480,0.02403304,0.0070
 5981,-0.00259078,0.00596419,0.01263699,-0.00063930,0.00035765,-0.00086
 025,0.00103781,0.00031942,0.00071281,0.28757655,0.05716293,-0.14503670
 ,-0.02957191,0.01820983,-0.02463581,-0.00700367,0.00314281,-0.00006391
 ,0.00330827,0.00263455,0.00147702,-0.01401345,0.00032987,-0.00047655,0
 .00099465,0.00157325,-0.00146827,0.00087392,-0.18972022,0.25352754,0.0
 1137390,-0.02297695,-0.08710052,-0.00759790,0.00595278,0.00461945,-0.0
 0650789,0.01221090,0.00629938,0.01559485,-0.02308566,-0.02097416,0.000
 36382,0.00066544,-0.00349836,-0.00154798,-0.00007156,-0.00355266,0.001
 66616,0.08208890,0.67940590,0.00027283,-0.00215280,0.01352351,0.000498
 20,0.00054442,-0.00018832,0.00000571,-0.00043315,-0.00043509,-0.001628
 70,0.00209291,0.00035722,0.00002188,-0.00008315,-0.00013855,0.00006682
 ,0.00006474,0.00109030,-0.05909036,0.03445345,0.07610248,0.05378021,0.
 00312546,0.00052362,-0.02165389,-0.00082649,0.00097600,0.00057356,0.00
 045381,0.00012721,0.00017868,0.00272626,-0.00347340,-0.00009805,0.0000
 8643,0.00003757,-0.00154903,-0.00023781,-0.00006970,-0.00052433,0.0302
 8423,-0.04378559,-0.05037329,-0.03112269,0.04344402,-0.00118869,0.0031
 1040,0.00060366,0.00020837,-0.00030774,0.00002679,0.00032127,-0.000568
 47,-0.00031392,0.00004560,0.00081919,0.00029701,0.00003729,0.00004051,
 -0.00002134,0.00006025,-0.00018494,-0.00018137,0.06632339,-0.06075262,
 -0.32322426,-0.07500156,0.06048008,0.33575832,-0.00259078,0.00596419,-
 0.01263699,-0.00063930,0.00035765,0.00086025,0.00103781,0.00031942,-0.
 00071281,-0.10607700,0.07379147,-0.01882932,0.00765374,-0.00545265,0.0
 0508538,-0.01302480,0.02403305,-0.00705981,-0.00939974,-0.02397607,0.0
 0229922,-0.00495522,-0.00044594,-0.00207275,0.28757655,0.00263455,0.00
 147703,0.01401345,0.00032987,-0.00047655,-0.00099465,0.00157325,-0.001
 46827,-0.00087392,0.05716293,-0.14503670,0.02957191,0.01820983,-0.0246
 3581,0.00700367,0.00314281,-0.00006391,-0.00330827,-0.02397607,-0.0303
 8746,0.01452375,0.00185452,-0.00094446,-0.00008173,-0.18972022,0.25352
 754,-0.01559485,0.02308567,-0.02097416,-0.00036382,-0.00066544,-0.0034
 9836,0.00154798,0.00007156,-0.00355266,-0.01137390,0.02297695,-0.08710
 052,0.00759790,-0.00595278,0.00461945,0.00650789,-0.01221090,0.0062993
 8,-0.00229922,-0.01452375,-0.05545499,-0.00052345,0.00445712,-0.003295
 87,-0.00166616,-0.08208890,0.67940590,-0.00162870,0.00209291,-0.000357
 22,0.00002188,-0.00008315,0.00013855,0.00006682,0.00006474,-0.00109030
 ,0.00027283,-0.00215280,-0.01352351,0.00049820,0.00054442,0.00018832,0
 .00000571,-0.00043315,0.00043509,-0.00495522,0.00185452,0.00052345,0.0
 0189854,0.00058624,0.00054331,-0.05909036,0.03445345,-0.07610248,0.053
 78021,0.00272626,-0.00347340,0.00009805,0.00008643,0.00003757,0.001549
 03,-0.00023781,-0.00006970,0.00052433,0.00312546,0.00052362,0.02165389
 ,-0.00082649,0.00097600,-0.00057356,0.00045381,0.00012721,-0.00017868,
 -0.00044594,-0.00094446,-0.00445712,0.00058624,0.00185952,-0.00070217,
 0.03028423,-0.04378559,0.05037329,-0.03112269,0.04344402,-0.00004560,-
 0.00081919,0.00029701,-0.00003729,-0.00004051,-0.00002134,-0.00006025,
 0.00018494,-0.00018137,0.00118869,-0.00311040,0.00060366,-0.00020837,0
 .00030774,0.00002679,-0.00032127,0.00056847,-0.00031392,0.00207275,0.0
 0008173,-0.00329587,-0.00054331,0.00070217,-0.00067373,-0.06632339,0.0
 6075262,-0.32322426,0.07500156,-0.06048008,0.33575832,0.00151249,-0.00
 400846,-0.00074482,-0.00000849,0.00139022,0.00070877,-0.00052434,0.001
 19287,0.00108681,-0.00019891,-0.00468368,-0.00170898,-0.00004211,-0.00
 040796,0.00092170,-0.00170398,0.00009611,-0.00024474,0.01796774,0.0409
 5220,-0.03135717,-0.00006290,0.00105871,0.00065562,0.01900848,0.028041
 01,0.00151798,-0.00181297,-0.00214196,-0.00057778,0.03105487,-0.004946
 39,-0.01785658,0.00298124,0.00045444,-0.00044756,-0.00105139,-0.001660
 39,0.00120075,0.00124159,-0.00018782,-0.00277134,-0.00037909,-0.000226
 93,0.00046010,0.00056874,-0.00114336,0.00015274,-0.00045475,0.03108372
 ,0.03161221,-0.03260213,0.00176754,0.00198210,0.00122367,0.01309589,0.
 03154306,-0.00024208,-0.00222315,-0.00211771,-0.00030347,-0.00106153,0
 .02262783,-0.00221646,0.01335400,0.00074767,0.00178222,-0.00153550,-0.
 00004219,0.00511668,-0.00190594,-0.00134178,-0.00214624,0.01021337,-0.
 00009586,0.00152904,-0.00052595,0.00009386,0.00458989,-0.00212157,0.00
 120318,-0.08725881,-0.11446130,0.04027075,0.00404735,0.00356968,-0.001
 98623,-0.08956188,-0.11345574,-0.05957158,0.00016336,-0.00144646,0.001
 50913,0.11603441,0.11335456,1.08172575,-0.00019891,-0.00468368,0.00170
 898,-0.00004211,-0.00040796,-0.00092170,-0.00170398,0.00009611,0.00024
 474,0.00151249,-0.00400846,0.00074482,-0.00000849,0.00139022,-0.000708
 78,-0.00052435,0.00119287,-0.00108681,0.01900848,0.02804102,-0.0015179
 8,-0.00181297,-0.00214196,0.00057778,0.01796774,0.04095220,0.03135717,
 -0.00006290,0.00105871,-0.00065562,-0.06302314,-0.04311434,0.08069380,
 0.03105486,-0.00018782,-0.00277134,0.00037910,-0.00022693,0.00046011,-
 0.00056874,-0.00114336,0.00015274,0.00045475,-0.00494639,-0.01785657,-
 0.00298124,0.00045444,-0.00044756,0.00105139,-0.00166039,0.00120075,-0
 .00124159,0.01309589,0.03154306,0.00024208,-0.00222315,-0.00211771,0.0
 0030347,0.03108371,0.03161221,0.03260213,0.00176754,0.00198210,-0.0012
 2367,-0.04311434,-0.05792706,0.08199834,-0.00106153,0.02262784,0.00214
 624,-0.01021337,-0.00009586,-0.00152904,0.00052595,0.00009386,-0.00458
 989,0.00212157,0.00120318,0.00221646,-0.01335399,0.00074767,-0.0017822
 2,0.00153550,-0.00004219,-0.00511668,0.00190594,-0.00134178,0.08956188
 ,0.11345574,-0.05957158,-0.00016336,0.00144646,0.00150913,0.08725881,0
 .11446130,0.04027075,-0.00404735,-0.00356968,-0.00198623,-0.08069380,-
 0.08199835,-1.06144100,-0.11603441,-0.11335456,1.08172576,-0.01644535,
 0.01395678,-0.00883838,-0.00080579,-0.00018373,-0.00004463,-0.00093077
 ,0.00212071,0.00046908,-0.01644535,0.01395678,0.00883837,-0.00080579,-
 0.00018373,0.00004464,-0.00093077,0.00212071,-0.00046908,-0.11281376,0
 .02563166,-0.06114938,0.01023015,-0.00368736,0.00992978,-0.11281376,0.
 02563166,0.06114938,0.01023015,-0.00368736,-0.00992978,-0.00580631,0.0
 0394290,-0.02224583,-0.00580631,0.00394290,0.02224583,0.52308171,0.031
 13949,-0.00514819,0.01512982,-0.00097230,0.00039100,-0.00013024,0.0023
 6036,-0.00481649,-0.00145049,0.03113949,-0.00514819,-0.01512982,-0.000
 97230,0.00039100,0.00013024,0.00236036,-0.00481649,0.00145049,0.036184
 16,-0.07715842,0.02274019,-0.00509488,0.00122844,-0.00366583,0.0361841
 6,-0.07715842,-0.02274019,-0.00509488,0.00122844,0.00366583,-0.0117921
 0,-0.00396176,-0.00256106,-0.01179210,-0.00396176,0.00256106,-0.070919
 09,0.60540354,-0.00552556,0.00245301,0.00235957,0.00092546,-0.00027169
 ,-0.00008193,0.00105951,-0.00049984,-0.00055748,0.00552556,-0.00245301
 ,0.00235957,-0.00092546,0.00027169,-0.00008193,-0.00105951,0.00049984,
 -0.00055748,-0.07178708,0.02900740,-0.17291340,-0.01979181,0.00278421,
 -0.00848032,0.07178708,-0.02900740,-0.17291340,0.01979181,-0.00278421,
 -0.00848032,-0.00400342,-0.00249471,0.00095819,0.00400342,0.00249471,0
 .00095819,0.,0.,0.42806484,0.00109136,0.00158884,-0.00050848,-0.000630
 37,0.00055879,-0.00013762,0.00039813,-0.00014698,-0.00033735,0.0010913
 6,0.00158884,0.00050848,-0.00063037,0.00055879,0.00013762,0.00039813,-
 0.00014698,0.00033735,-0.01711035,-0.01499457,-0.00038324,0.00074771,0
 .00097249,-0.00040751,-0.01711035,-0.01499457,0.00038324,0.00074771,0.
 00097249,0.00040751,0.00401399,0.00446972,-0.01052090,0.00401399,0.004
 46972,0.01052090,-0.19040595,-0.13049756,0.,0.20378852,-0.00018602,-0.
 00134129,0.00018120,0.00030892,-0.00011816,-0.00001808,-0.00044815,0.0
 0030567,0.00009856,-0.00018602,-0.00134129,-0.00018120,0.00030892,-0.0
 0011816,0.00001808,-0.00044815,0.00030567,-0.00009856,0.00330940,0.006
 16637,-0.00368466,-0.00046615,0.00013813,-0.00005287,0.00330940,0.0061
 6637,0.00368466,-0.00046615,0.00013813,0.00005287,-0.00305965,-0.00290
 557,0.00981768,-0.00305965,-0.00290557,-0.00981768,-0.11361792,-0.1421
 1159,0.,0.13758997,0.15613310,0.00132250,0.00081967,0.00053744,-0.0002
 6195,0.00026029,0.00003488,0.00040761,-0.00022117,-0.00053538,-0.00132
 250,-0.00081967,0.00053744,0.00026195,-0.00026029,0.00003488,-0.000407
 61,0.00022117,-0.00053538,-0.02355687,-0.01336234,-0.00569428,0.001143
 53,0.00071720,-0.00023017,0.02355687,0.01336234,-0.00569428,-0.0011435
 3,-0.00071720,-0.00023017,-0.00218267,0.00017737,-0.00171657,0.0021826
 7,-0.00017737,-0.00171657,0.,0.,-0.02080223,0.,0.,0.03597188,-0.002027
 14,0.00107585,-0.00112827,-0.00015978,0.00040078,-0.00011964,-0.000320
 37,0.00078083,-0.00001009,-0.00202714,0.00107585,0.00112827,-0.0001597
 8,0.00040078,0.00011964,-0.00032037,0.00078083,0.00001009,-0.00754301,
 0.01470476,0.00213766,0.00002809,-0.00083138,-0.00003214,-0.00754301,0
 .01470476,-0.00213766,0.00002809,-0.00083138,0.00003214,-0.00037440,-0
 .00025030,-0.00000665,-0.00037440,-0.00025030,0.00000665,-0.07953206,0
 .09776719,0.,0.00959649,-0.02288877,0.,0.09072879,0.00009000,0.0004230
 6,0.00035237,-0.00010020,-0.00002265,-0.00002937,-0.00008549,-0.000059
 83,0.00000007,0.00009000,0.00042306,-0.00035237,-0.00010020,-0.0000226
 5,0.00002937,-0.00008549,-0.00005983,-0.00000007,0.00117170,-0.0003690
 3,-0.00117267,0.00021215,0.00007427,0.00033904,0.00117170,-0.00036903,
 0.00117267,0.00021215,0.00007427,-0.00033904,-0.00246144,-0.00159121,0
 .00570590,-0.00246144,-0.00159122,-0.00570590,0.10097508,-0.28436110,0
 .,0.00801099,-0.01851184,0.,-0.10663950,0.30596374,-0.00435462,-0.0003
 7028,-0.00393691,0.00028190,-0.00008506,-0.00007234,-0.00057883,0.0011
 8882,0.00059030,0.00435462,0.00037028,-0.00393691,-0.00028190,0.000085
 06,-0.00007234,0.00057883,-0.00118882,0.00059030,-0.00801550,0.0238784
 3,0.00468461,0.00052105,-0.00071058,0.00021231,0.00801550,-0.02387843,
 0.00468461,-0.00052105,0.00071058,0.00021231,0.00058809,-0.00002119,-0
 .00031333,-0.00058809,0.00002119,-0.00031333,0.,0.,-0.04983188,0.,0.,0
 .00003850,0.,0.,0.04746411\\0.00000577,-0.00000127,0.00000037,0.000004
 44,0.00000070,-0.00000040,0.00000185,0.00000430,0.00000038,0.00000577,
 -0.00000127,-0.00000037,0.00000444,0.00000070,0.00000040,0.00000185,0.
 00000430,-0.00000038,0.00000187,0.00000896,0.00000232,-0.00000086,-0.0
 0000309,-0.00000350,0.00000187,0.00000896,-0.00000232,-0.00000086,-0.0
 0000309,0.00000350,-0.00001171,-0.00000182,-0.00004028,-0.00001171,-0.
 00000182,0.00004028,-0.00000684,-0.00000257,0.,0.00000519,-0.00000884,
 0.,-0.00000104,-0.00000414,0.\\\@


 "I COULD HAVE DONE IT IN A MUCH MORE COMPLICATED WAY"
 SAID THE RED QUEEN, IMMENSELY PROUD.

                                      -- LEWIS CARROLL
 Job cpu time:  0 days  0 hours 15 minutes 31.1 seconds.
 File lengths (MBytes):  RWF=     76 Int=      0 D2E=      0 Chk=      4 Scr=      1
 Normal termination of Gaussian 09 at Fri Nov  8 16:19:16 2019.
